TITLE=reference
VARIABLES=time leftInterface rightInterface
ZONE T=TA
0	0.275	0.225
0.00522617295185932	0.274987457101961	0.22501217849768
0.0104523459037186	0.274949845928062	0.225048707065041
0.015678518855578	0.274887218996086	0.225109564906353
0.0209046918074373	0.274799663692945	0.225194717299886
0.0261308647592966	0.274687302061116	0.225304115505109
0.0313570377111559	0.274550290500748	0.22543769663366
0.0365832106630153	0.274388819388492	0.225595383485035
0.0418093836148746	0.274203112614445	0.225777084348117
0.0470355565667339	0.273993427038861	0.225982692769976
0.0522617295185932	0.273760051870602	0.226212087293586
0.0574879024704525	0.273503307969552	0.226465131166321
0.0627140754223119	0.273223547075502	0.226741672021363
0.0679402483741712	0.272921150966281	0.227041541534312
0.0731664213260305	0.272596530548139	0.227364555057549
0.0783925942778898	0.272250124881643	0.227710511235041
0.0836187672297491	0.271882400146555	0.228079191600507
0.0888449401816085	0.271493848549393	0.228470360161988
0.0940711131334678	0.27108498717755	0.228883762976053
0.0992972860853271	0.270656356804028	0.229319127714971
0.104523459037186	0.270208520647033	0.229776163230345
0.109749631989046	0.269742063088785	0.230254559116769
0.114975804940905	0.269257588358059	0.23075398527918
0.120201977892764	0.268755719181066	0.231274091507657
0.125428150844624	0.268237095405375	0.231814507063432
0.130654323796483	0.267702372601673	0.232374840279977
0.135880496748342	0.267152220648174	0.232954678182975
0.141106669700202	0.266587322302567	0.233553586133063
0.146332842652061	0.266008371766382	0.234171107495129
0.15155901560392	0.265416073246654	0.234806763337998
0.15678518855578	0.264811139519739	0.235460052168198
0.162011361507639	0.264194290502118	0.236130449701499
0.167237534459498	0.263566251832916	0.236817408675773
0.172463707411358	0.262927753472832	0.237520358708634
0.177689880363217	0.262279528324043	0.238238706203195
0.182916053315076	0.261622310875539	0.238971834305123
0.188142226266936	0.260956835878214	0.239719102914012
0.193368399218795	0.260283837053883	0.240479848751925
0.198594572170654	0.259604045842218	0.24125338549177
0.203820745122514	0.258918190189425	0.242039003947935
0.209046918074373	0.258226993382279	0.242835972331447
0.214273091026232	0.257531172930911	0.243643536571614
0.219499263978092	0.256831439503534	0.244460920705934
0.224725436929951	0.256128495916027	0.245287327339741
0.22995160988181	0.255423036179084	0.246121938176849
0.235177782833669	0.254715744605327	0.246963914622117
0.240403955785529	0.254007294978556	0.247812398456634
0.245630128737388	0.253298349787001	0.248666512585899
0.250856301689247	0.252589559522161	0.249525361861096
0.256082474641107	0.251881562044546	0.250388033973233
0.261308647592966	0.251174982017294	0.251253600419673
0.266534820544825	0.2504704304084	0.252121117542205
0.271760993496685	0.249768504061927	0.252989627635566
0.276987166448544	0.249069785338325	0.253858160124976
0.282213339400403	0.24837484182363	0.254725732810974
0.287439512352263	0.247684226107059	0.255591353179526
0.292665685304122	0.246998475626197	0.256454019775093
0.297891858255981	0.246318112578674	0.257312723634053
0.303118031207841	0.245643643898959	0.258166449775594
0.3083442041597	0.244975561298609	0.259014178746916
0.313570377111559	0.244314341368031	0.25985488821932
0.318796550063419	0.243660445737566	0.260687554631499
0.324022723015278	0.243014321295426	0.261511154876128
0.329248895967137	0.242376400459805	0.262324668025575
0.334475068918997	0.241747101502215	0.263127077092399
0.339701241870856	0.241126828918913	0.263917370820028
0.344927414822715	0.240515973847055	0.264694545498902
0.350153587774575	0.239914914522047	0.265457606803117
0.355379760726434	0.239324016772363	0.266205571642513
0.360605933678293	0.238743634547977	0.266937470024986
0.365832106630153	0.238174110478365	0.267652346923687
0.371058279582012	0.237615776455977	0.268349264143682
0.376284452533871	0.237068954240908	0.269027302182557
0.381510625485731	0.236533956082456	0.26968556207941
0.38673679843759	0.236011085353179	0.270323167246616
0.391962971389449	0.235500637190997	0.270939265278739
0.397189144341308	0.23500289914488	0.271533029732979
0.402415317293168	0.234518151819653	0.272103661875553
0.407641490245027	0.234046669515443	0.272650392388447
0.412867663196886	0.23358872085734	0.273172483031074
0.418093836148746	0.233144569410909	0.273669228251424
0.423320009100605	0.232714474279219	0.274139956741411
0.428546182052464	0.232298690677197	0.274584032931274
0.433772355004324	0.231897470479182	0.275000858417986
0.438998527956183	0.231511062735718	0.275389873322847
0.444224700908042	0.231139714155737	0.275750557573583
0.449450873859902	0.230783669550478	0.2760824321065
0.454677046811761	0.230443172235643	0.276385059984453
0.45990321976362	0.230118464388519	0.276658047426632
0.46512939271548	0.229809787356963	0.276901044746424
0.470355565667339	0.229517381917426	0.277113747193882
0.475581738619198	0.229241488479393	0.277295895699613
0.480807911571058	0.228982347233884	0.277447277517191
0.486034084522917	0.228740198243929	0.277567726761522
0.491260257474776	0.228515281475212	0.277657124840911
0.496486430426636	0.228307836765329	0.277715400780888
0.501712603378495	0.228118103730466	0.277742531438223
0.506938776330354	0.227946321608518	0.277738541603885
0.512164949282214	0.227792729038063	0.277703503994071
0.517391122234073	0.227657563772846	0.277637539128762
0.522617295185932	0.227541062331796	0.277540815097668
0.527843468137791	0.227443459584873	0.277413547213743
0.533069641089651	0.227364988275404	0.277255997554855
0.53829581404151	0.227305878479834	0.277068474394539
0.54352198699337	0.227266357006193	0.276851331523127
0.548748159945229	0.227246646732829	0.276604967460923
0.553974332897088	0.227246965889323	0.276329824565426
0.559200505848947	0.227267527281765	0.276026388034984
0.564426678800807	0.227308537464886	0.27569518481156
0.569652851752666	0.227370195863814	0.275336782385682
0.574879024704525	0.227452693848524	0.274951787506918
0.580105197656385	0.227556213764287	0.274540844803582
0.585331370608244	0.2276809279217	0.274104635315631
0.590557543560103	0.227826997550124	0.273643874945042
0.595783716511963	0.227994571718572	0.273159312828209
0.601009889463822	0.228183786228306	0.272651729635162
0.606236062415681	0.228394762481613	0.272121935800658
0.611462235367541	0.228627606331394	0.271570769692415
0.6166884083194	0.228882406916371	0.270999095721974
0.621914581271259	0.229159235486865	0.270407802403837
0.627140754223119	0.229458144226224	0.26979780036874
0.632366927174978	0.229779165073067	0.269170020337021
0.637593100126837	0.230122308549638	0.268525411058203
0.642819273078697	0.230487562601581	0.267864937222998
0.648045446030556	0.230874891454525	0.267189577354037
0.653271618982415	0.231284234492881	0.266500321681667
0.658497791934274	0.231715505166248	0.265798170011225
0.663723964886134	0.232168589928815	0.265084129588191
0.668950137837993	0.232643347217094	0.264359212967621
0.674176310789853	0.233139606471272	0.263624435894238
0.679402483741712	0.233657167205354	0.262880815199494
0.684628656693571	0.234195798131197	0.262129366721857
0.68985482964543	0.234755236341393	0.261371103256453
0.69508100259729	0.235335186555786	0.26060703254011
0.700307175549149	0.235935320436292	0.259838155277674
0.705533348501008	0.236555275974446	0.25906546321533
0.710759521452868	0.23719465695594	0.258289937266466
0.715985694404727	0.237853032506145	0.257512545695419
0.721211867356586	0.238529936720409	0.256734242364223
0.726438040308446	0.239224868382632	0.255955965047242
0.731664213260305	0.239937290775353	0.255178633818301
0.736890386212164	0.240666631584296	0.254403149514676
0.742116559164024	0.241412282900008	0.253630392281996
0.747342732115883	0.242173601318909	0.252861220203828
0.752568905067742	0.242949908145754	0.252096468019373
0.757795078019602	0.243740489699134	0.251336945932409
0.763021250971461	0.244544597721336	0.250583438514244
0.76824742392332	0.245361449893498	0.249836703703121
0.77347359687518	0.246190230456626	0.24909747190215
0.778699769827039	0.247030090938698	0.248366445177474
0.783925942778898	0.24788015098768	0.247644296558028
0.789152115730758	0.248739499309905	0.246931669437854
0.794378288682617	0.249607194712921	0.246229177081577
0.799604461634476	0.250482267251483	0.24553740223327
0.804830634586336	0.251363719475038	0.244856896828552
0.810056807538195	0.252250527774658	0.2441881818094
0.815282980490054	0.253141643827004	0.243531747040775
0.820509153441914	0.254035996132552	0.242888051327804
0.825735326393773	0.254932491644964	0.242257522531893
0.830961499345632	0.25583001748811	0.241640557783805
0.836187672297491	0.256727442756965	0.241037523791361
0.841413845249351	0.257623620398218	0.240448757239137
0.84664001820121	0.258517389166169	0.239874565277154
0.851866191153069	0.25940757564916	0.239315226095278
0.857092364104929	0.260292996361524	0.238770989579744
0.862318537056788	0.261172459895747	0.238242078047922
0.867544710008647	0.262044769129306	0.237728687057183
0.872770882960507	0.262908723480408	0.237230986283476
0.877997055912366	0.263763121206629	0.236749120464983
0.883223228864225	0.264606761740278	0.236283210406011
0.888449401816085	0.265438448054128	0.235833354036068
0.893675574767944	0.266256989050997	0.235399627518924
0.898901747719803	0.267061201970546	0.234982086406272
0.904127920671663	0.267849914806538	0.234580766830469
0.909354093623522	0.268621968727738	0.234195686730768
0.914580266575381	0.26937622049554	0.233826847107285
0.919806439527241	0.270111544871412	0.233474233296955
0.9250326124791	0.270826837007191	0.233137816265632
0.930258785430959	0.271521014811297	0.232817553910477
0.935484958382819	0.272193021283974	0.232513392366798
0.940711131334678	0.27284182681469	0.232225267313496
0.945937304286537	0.273466431434951	0.231953105271345
0.951163477238397	0.274065867019851	0.231696824888381
0.956389650190256	0.274639199431833	0.23145633820677
0.961615823142115	0.275185530600288	0.231231551905656
0.966841996093975	0.275704000530753	0.231022368514583
0.972068169045834	0.276193789237728	0.230828687592276
0.977294341997693	0.27665411859528	0.23065040686573
0.982520514949553	0.27708425409989	0.230487423324731
0.987746687901412	0.277483506540225	0.230339634267171
0.992972860853271	0.277851233568799	0.230206938290737
0.998199033805131	0.278186841170781	0.230089236226804
1.00342520675699	0.278489785025507	0.229986432012612
1.00865137970885	0.27875957175659	0.229898433498119
1.01387755266071	0.278995760066855	0.229825153184174
1.01910372561257	0.279197961754655	0.229766508888984
1.02432989856443	0.279365842608534	0.229722424340162
1.02955607151629	0.279499123177525	0.229692829689968
1.03478224446815	0.279597579414795	0.229677661951675
1.04000841742001	0.279661043192709	0.229676865355383
1.04523459037186	0.27968940268781	0.229690391621876
1.05046076332372	0.279682602634582	0.229718200153565
1.05568693627558	0.279640644447313	0.229760258141837
1.06091310922744	0.279563586209731	0.229816540590535
1.0661392821793	0.279451542532552	0.229887030255659
1.07136545513116	0.279304684279425	0.2299717175017
1.07659162808302	0.279123238162238	0.23007060007543
1.08181780103488	0.278907486207079	0.230183682798274
1.08704397398674	0.278657765092597	0.230310977178797
1.0922701469386	0.278374465362884	0.230452500947119
1.09749631989046	0.278058030517367	0.230608277513474
1.10272249284232	0.277708955980595	0.230778335353406
1.10794866579418	0.27732778795517	0.230962707322439
1.11317483874604	0.276915122161399	0.23116142990336
1.11840101169789	0.276471602467615	0.231374542389544
1.12362718464975	0.275997919415423	0.23160208600804
1.12885335760161	0.27549480864444	0.23184410298638
1.13407953055347	0.274963049221386	0.23210063556737
1.13930570350533	0.274403461878682	0.232371724976286
1.14453187645719	0.273816907167931	0.232657410345183
1.14975804940905	0.27320428353394	0.232957727599183
1.15498422236091	0.272566525315124	0.233272708309782
1.16021039531277	0.27190460067635	0.233602378520401
1.16543656826463	0.271219509480451	0.233946757549529
1.17066274121649	0.270512281104793	0.234305856776899
1.17588891416835	0.269783972209419	0.234679678418288
1.18111508712021	0.269035664463379	0.235068214294541
1.18634126007207	0.268268462235979	0.235471444600521
1.19156743302393	0.267483490259708	0.235889336679684
1.19679360597578	0.266681891271656	0.23632184380999
1.20201977892764	0.265864823640271	0.236768904006855
1.2072459518795	0.265033458984245	0.237230438848802
1.21247212483136	0.264188979790344	0.237706352331393
1.21769829778322	0.263332577036904	0.238196529754968
1.22292447073508	0.262465447829649	0.238700836651595
1.22815064368694	0.261588793056386	0.239219117756495
1.2333768166388	0.260703815067014	0.239751196029093
1.23860298959066	0.259811715385127	0.240296871728641
1.24382916254252	0.258913692457348	0.240855921549192
1.24905533549438	0.258010939446304	0.241428097818497
1.25428150844624	0.257104642073012	0.242013127765154
1.2595076813981	0.256195976514147	0.242610712858127
1.26473385434996	0.255286107359488	0.243220528222456
1.26996002730182	0.254376185634526	0.243842222134739
1.27518620025367	0.25346734689299	0.244475415601656
1.28041237320553	0.252560709383729	0.245119702024516
1.28563854615739	0.251657372296083	0.245774646952491
1.29086471910925	0.250758414087594	0.246439787926868
1.29609089206111	0.249864890897544	0.247114634418334
1.30131706501297	0.248977835049495	0.247798667858952
1.30654323796483	0.248098253645661	0.248491341770134
1.31176941091669	0.247227127255578	0.249192081987585
1.31699558386855	0.246365408701198	0.249900286983798
1.32222175682041	0.245514021940157	0.250615328288356
1.32744792977227	0.244673861048618	0.2513365510059
1.33267410272413	0.243845789304706	0.252063274431272
1.33790027567599	0.243030638373207	0.25279479276099
1.34312644862785	0.242229207591817	0.253530375899839
1.34835262157971	0.241442263358884	0.254269270360992
1.35357879453156	0.240670538622213	0.255010700257767
1.35880496748342	0.239914732468155	0.255753868384738
1.36403114043528	0.239175509809861	0.256497957385597
1.36925731338714	0.238453501173227	0.257242131004863
1.374483486339	0.237749302578749	0.257985535420163
1.37970965929086	0.237063475517165	0.258727300651559
1.38493583224272	0.236396547016462	0.259466542044078
1.39016200519458	0.235749009797537	0.260202361819322
1.39538817814644	0.235121322515499	0.260933850691776
1.4006143510983	0.234513910083367	0.261660089545192
1.40584052405016	0.233927164074611	0.262380151164196
1.41106669700202	0.233361443200815	0.26309310201603
1.41629286995388	0.23281707386046	0.263798004077186
1.42151904290574	0.232294350754668	0.264493916699481
1.42674521585759	0.231793537565547	0.265179898509979
1.43197138880945	0.231314867692614	0.265855009339044
1.43719756176131	0.230858545042637	0.266518312170672
1.44242373471317	0.230424744868106	0.26716887510917
1.44764990766503	0.230013614649456	0.267805773356186
1.45287608061689	0.229625275016053	0.268428091192032
1.45810225356875	0.229259820700942	0.269034923955222
1.46332842652061	0.228917321524252	0.26962538001414
1.46855459947247	0.228597823400204	0.270198582724784
1.47378077242433	0.228301349362609	0.270753672368544
1.47900694537619	0.228027900603817	0.271289808064057
1.48423311832805	0.227777457522071	0.271806169647262
1.48945929127991	0.227549980772348	0.272301959513871
1.49468546423177	0.227345412315774	0.272776404418603
1.49991163718363	0.227163676462888	0.273228757225676
1.50513781013548	0.227004680906081	0.273658298605213
1.51036398308734	0.226868317736722	0.274064338670403
1.5155901560392	0.226754464442614	0.274446218550451
1.52081632899106	0.226662984881631	0.27480331189459
1.52604250194292	0.226593730227528	0.275135026302644
1.53126867489478	0.226546539884177	0.275440804677892
1.53649484784664	0.226521242364661	0.27572012649824
1.5417210207985	0.226517656131914	0.275972509002012
1.54694719375036	0.226535590397829	0.276197508284926
1.55217336670222	0.226574845878024	0.27639472030515
1.55739953965408	0.22663521549971	0.27656378179365
1.56262571260594	0.226716485060383	0.276704371067336
1.5678518855578	0.226818433835362	0.276816208742883
1.57307805850966	0.226940835132452	0.276899058349398
1.57830423146152	0.227083456792334	0.276952726838482
1.58353040441337	0.227246061633566	0.276977064990557
1.58875657736523	0.227428407841393	0.276971967716687
1.59398275031709	0.227630249299843	0.276937374255478
1.59920892326895	0.227851335866907	0.276873268264973
1.60443509622081	0.228091413592906	0.276779677809814
1.60966126917267	0.22835022488242	0.276656675244307
1.61488744212453	0.228627508600469	0.276504376992328
1.62011361507639	0.228923000123924	0.276322943225384
1.62533978802825	0.2292364313394	0.276112577440441
1.63056596098011	0.229567530589152	0.275873525939474
1.63579213393197	0.229916022566794	0.275606077212986
1.64101830688383	0.230281628164865	0.275310561230076
1.64624447983569	0.230664064276573	0.274987348637878
1.65147065278755	0.231063043554222	0.274636849873531
1.65669682573941	0.231478274127098	0.274259514192051
1.66192299869126	0.231909459281767	0.273855828613763
1.66714917164312	0.232356297107943	0.273426316795174
1.67237534459498	0.232818480113265	0.272971537827376
1.67760151754684	0.23329569481047	0.272492084966298
1.6828276904987	0.233787621280614	0.271988584299287
1.68805386345056	0.234293932716106	0.27146169335268
1.69328003640242	0.234814294947431	0.270912099645157
1.69850620935428	0.235348365957542	0.27034051919184
1.70373238230614	0.235895795387964	0.269747694964147
1.708958555258	0.236456224040706	0.269134395310565
1.71418472820986	0.237029283380129	0.26850141234353
1.71941090116172	0.237614595038903	0.267849560297677
1.72463707411358	0.238211770332231	0.267179673864749
1.72986324706544	0.238820409784439	0.266492606510447
1.73508942001729	0.239440102672045	0.265789228778515
1.74031559296915	0.240070426587317	0.265070426587317
1.74554176592101	0.240710947026283	0.264337099524094
1.75076793887287	0.241361217005033	0.263590159142046
1.75599411182473	0.242020776708069	0.262830527265284
1.76122028477659	0.242689153172292	0.262059134306577
1.76644645772845	0.243365860010107	0.261276917602713
1.77167263068031	0.244050397174912	0.260484819772141
1.77689880363217	0.244742250772123	0.259683787099396
1.78212497658403	0.24544089291862	0.25887476795065
1.78735114953589	0.246145781653356	0.258058711224514
1.79257732248775	0.246856360901599	0.257236564842041
1.79780349543961	0.247572060495082	0.256409274279639
1.80302966839147	0.248292296250072	0.255577781148383
1.80825584134333	0.249016470105112	0.254743021822969
1.81348201429518	0.249743970319943	0.253905926123302
1.81870818724704	0.250474171736838	0.253067416051443
1.8239343601989	0.251206436105288	0.252228404586384
1.82916053315076	0.25194011247072	0.251389794538817
1.83438670610262	0.252674537627625	0.250552477467818
1.83961287905448	0.253409036637193	0.249717332661039
1.84483905200634	0.254142923409249	0.248885226179745
1.8500652249582	0.254875501348018	0.248057009969713
1.85529139791006	0.255606064060912	0.24723352103875
1.86051757086192	0.256333896129296	0.246415580701245
1.86574374381378	0.257058273939857	0.24560399388994
1.87096991676564	0.257778466574951	0.24479954853476
1.8761960897175	0.258493736760005	0.244003015008295
1.88142226266936	0.259203341865794	0.243215145637232
1.88664843562122	0.259906534963151	0.242436674278769
1.89187460857307	0.260602565927406	0.241668315960768
1.89710078152493	0.261290682589618	0.240910766584168
1.90232695447679	0.261970131931429	0.240164702685898
1.90755312742865	0.262640161320139	0.239430781260336
1.91277930038051	0.263300019780424	0.238709639637102
1.91800547333237	0.263948959298877	0.238001895412772
1.92323164628423	0.264586236157438	0.237308146433914
1.92845781923609	0.265211112291554	0.23662897082863
1.93368399218795	0.265822856668804	0.235964927083664
1.93891016513981	0.266420746683589	0.235316554163939
1.94413633809167	0.267004069563356	0.234684371671268
1.94936251104353	0.267572123781753	0.23406888003887
1.95458868399539	0.268124220474023	0.233470560758203
1.95981485694725	0.268659684849896	0.232889876634537
1.96504102989911	0.269177857599197	0.232327272067646
1.97026720285096	0.269678096285364	0.231783173353917
1.97549337580282	0.270159776722075	0.231257989006153
1.98071954875468	0.270622294328218	0.230752110087353
1.98594572170654	0.271065065456436	0.230265910554708
1.9911718946584	0.271487528690588	0.22979974761013
1.99639806761026	0.271889146107509	0.229353962053631
2.00162424056212	0.272269404498557	0.228928878635938
2.00685041351398	0.272627816546559	0.228524806406819
2.01207658646584	0.272963921953884	0.228142039055665
2.0173027594177	0.273277288517537	0.227780855240999
2.02252893236956	0.273567513147325	0.227441518905701
2.02775510532142	0.273834222823324	0.227124279574878
2.03298127827328	0.274077075489099	0.226829372633472
2.03820745122514	0.274295760877299	0.226557019580856
2.04343362417699	0.274490001264529	0.226307428259859
2.04865979712885	0.274659552152594	0.226080793057856
2.05388597008071	0.274804202873487	0.225877295077766
2.05911214303257	0.274923777115765	0.225697102277018
2.06433831598443	0.275018133370187	0.225540369572758
2.06956448893629	0.27508716529284	0.225407238911855
2.07479066188815	0.27513080198419	0.225297839304422
2.08001683484001	0.275149008182863	0.225212286819923
2.08524300779187	0.275141784373211	0.225150684545087
2.09046918074373	0.275109166806059	0.225113122503202
2.09569535369559	0.275051227432316	0.225099677534551
2.10092152664745	0.274968073749468	0.225110413138066
2.10614769959931	0.274859848561252	0.225145379274517
2.11137387255117	0.274726729651156	0.225204612131815
2.11660004550303	0.274568929370679	0.225288133853293
2.12182621845488	0.274386694143588	0.225395952230052
2.12705239140674	0.274180303887744	0.225528060358753
2.1322785643586	0.273950071356304	0.225684436266454
2.13750473731046	0.273696341400482	0.22586504250436
2.14273091026232	0.273419490156239	0.226069825712556
2.14795708321418	0.273119924157635	0.226298716158066
2.15318325616604	0.272798079379765	0.226551627248749
2.1584094291179	0.272454420214502	0.226828455025788
2.16363560206976	0.272089438382491	0.227129077637699
2.16886177502162	0.27170365178506	0.227453354798975
2.17408794797348	0.271297603299931	0.227801127236653
2.17931412092534	0.270871859524829	0.228172216128243
2.1845402938772	0.270427009473223	0.228566422534588
2.18976646682906	0.269963663226653	0.228983526831357
2.19499263978092	0.269482450548204	0.229423288142986
2.20021881273277	0.268984019461838	0.229885443782938
2.20544498568463	0.268469034802397	0.23036970870427
2.21067115863649	0.267938176741187	0.230875774964517
2.21589733158835	0.267392139292129	0.231403311208941
2.22112350454021	0.266831628803513	0.231951962176227
2.22634967749207	0.266257362440422	0.232521348230688
2.23157585044393	0.26567006666292	0.233111064925027
2.23680202339579	0.265070475705072	0.233720682597668
2.24202819634765	0.26445933005987	0.2343497460086
2.24725436929951	0.26383737497505	0.234997774017604
2.25248054225137	0.263205358964767	0.23566425930865
2.25770671520323	0.262564032341972	0.23634866816411
2.26293288815509	0.261914145776259	0.237050440292323
2.26815906110695	0.261256448881811	0.237768988711892
2.2733852340588	0.260591688839933	0.238503699695924
2.27861140701066	0.259920609060525	0.239253932779236
2.28383757996252	0.259243947886637	0.240019020831369
2.28906375291438	0.258562437346084	0.240798270198014
2.29428992586624	0.25787680195389	0.241590960913246
2.2995160988181	0.257187757569086	0.242396346984706
2.30474227176996	0.256496010309179	0.243213656753635
2.30996844472182	0.255802255525346	0.244042093331372
2.31519461767368	0.255107176841146	0.244880835113673
2.32042079062554	0.254411445257276	0.245729036373929
2.3256469635774	0.253715718324617	0.246585827936029
2.33087313652926	0.253020639387521	0.247450317927359
2.33609930948112	0.252326836898994	0.248321592612104
2.34132548243298	0.251634923809136	0.249198717304675
2.34655165538484	0.250945497027871	0.250080737362842
2.35177782833669	0.250259136962711	0.250966679259749
2.35700400128855	0.249576407131959	0.251855551733739
2.36223017424041	0.248897853853467	0.252746347014566
2.36745634719227	0.248224006008722	0.253638042124245
2.37268252014413	0.247555374881731	0.254529600250508
2.37790869309599	0.246892454071872	0.255419972190496
2.38313486604785	0.246235719479553	0.256308097862029
2.38836103899971	0.245585629363231	0.257192907879484
2.39358721195157	0.244942624466027	0.258073325191041
2.39881338490343	0.244307128209924	0.258948266773752
2.40403955785529	0.2436795469552	0.259816645382633
2.40926573080715	0.243060270322521	0.26067737134972
2.41449190375901	0.242449671574842	0.26152935442877
2.41971807671087	0.241848108056016	0.262371505681071
2.42494424966273	0.241255921682778	0.263202739397594
2.43017042261459	0.240673439486561	0.264021975052518
2.43539659556644	0.240100974201374	0.264828139282985
2.4406227685183	0.239538824893807	0.265620167889752
2.44584894147016	0.238987277631037	0.266397007853272
2.45107511442202	0.238446606182565	0.267157619359596
2.45630128737388	0.237917072751277	0.267900977830375
2.46152746032574	0.237398928729293	0.26862607595115
2.4667536332776	0.236892415473975	0.269331925692046
2.47197980622946	0.236397765099396	0.270017560314919
2.47720597918132	0.235915201278497	0.270682036361013
2.48243215213318	0.235444940051123	0.271324435613113
2.48765832508504	0.234987190633122	0.271943867026265
2.4928844980369	0.234542156221669	0.272539468621104
2.49811067098876	0.234110034792035	0.273110409333918
2.50333684394062	0.233691019881025	0.273655890817667
2.50856301689247	0.233285301352402	0.274175149188231
2.51378918984433	0.232893066139682	0.274667456710329
2.51901536279619	0.232514498961797	0.275132123417653
2.52424153574805	0.232149783007237	0.275568498661952
2.52946770869991	0.231799100582444	0.275975972585965
2.53469388165177	0.231462633720356	0.276353977515306
2.53992005460363	0.231140564745225	0.276701989264632
2.54514622755549	0.230833076789987	0.277019528353648
2.55037240050735	0.230540354262697	0.277306161128774
2.55559857345921	0.230262583258776	0.277561500786563
2.56082474641107	0.229999951916026	0.277785208295232
2.56605091936293	0.229752650709685	0.277976993211011
2.57127709231479	0.229520872684994	0.278136614386268
2.57650326526665	0.229304813625089	0.278263880566762
2.5817294382185	0.229104672152295	0.278358650875651
2.58695561117036	0.228920649761198	0.278420835182286
2.59218178412222	0.228752950782196	0.278450394354139
2.59740795707408	0.228601782274549	0.278447340390595
2.60263413002594	0.228467353848239	0.278411736437709
2.6078603029778	0.228349877414338	0.278343696683393
2.61308647592966	0.22824956686384	0.278243386132896
2.61831264888152	0.228166637675326	0.278111020264796
2.62353882183338	0.228101306452083	0.277946864568129
2.62876499478524	0.2280537903897	0.277751233961643
2.6339911677371	0.22802430667546	0.277524492096549
2.63921734068896	0.228013071821168	0.277267050544524
2.64444351364082	0.228020300931403	0.276979367873076
2.64966968659268	0.228046206909482	0.276661948610756
2.65489585954454	0.228090999603729	0.276315342105054
2.6601220324964	0.228154884896964	0.27594014127617
2.66534820544825	0.228238063742386	0.275536981270173
2.67057437840011	0.228340731149322	0.275106538015399
2.67580055135197	0.228463075122598	0.274649526686259
2.68102672430383	0.228605275559488	0.274166700078895
2.68625289725569	0.228767503108502	0.273658846903452
2.69147907020755	0.228949917994437	0.273126789997958
2.69670524315941	0.229152668814373	0.272571384469088
2.70193141611127	0.22937589130944	0.271993515765296
2.70715758906313	0.229619707117393	0.27139409768804
2.71238376201499	0.229884222511153	0.270774070346982
2.71760993496685	0.230169527128622	0.270134398065264
2.72283610791871	0.23047569269919	0.269476067241073
2.72806228087057	0.230802771772433	0.268800084171868
2.73328845382243	0.231150796454585	0.268107472847729
2.73851462677428	0.231519777158413	0.267399272720402
2.74374079972614	0.231909701372128	0.266676536454644
2.748966972678	0.232320532453012	0.265940327668536
2.75419314562986	0.232752208451382	0.265191718669452
2.75941931858172	0.233204640970484	0.264431788192341
2.76464549153358	0.233677714067877	0.263661619146975
2.76987166448544	0.234171283203718	0.262882296380749
2.7750978374373	0.234685174241324	0.262094904463559
2.78032401038916	0.235219182505206	0.261300525501151
2.78555018334102	0.235773071901644	0.260500236983255
2.79077635629288	0.2363465741067	0.259695109672657
2.79600252924474	0.236939387826361	0.258886205541177
2.8012287021966	0.237551178133319	0.258074575758375
2.80645487514846	0.238181575884642	0.25726125873857
2.81168104810031	0.238830177224352	0.256447278251551
2.81690722105217	0.239496543174666	0.255633641602098
2.82213339400403	0.240180199319368	0.254821337883196
2.82735956695589	0.240880635582492	0.254011336307506
2.83258573990775	0.241597306105169	0.253204584621422
2.83781191285961	0.242329629223196	0.252402007605671
2.84303808581147	0.243076987547522	0.251604505666146
2.84826425876333	0.243838728149511	0.250812953518288
2.85349043171519	0.244614162852497	0.25002819896802
2.85871660466705	0.245402568630759	0.249251061791858
2.86394277761891	0.246203188116695	0.248482332718476
2.86916895057077	0.247015230216595	0.247722772513633
2.87439512352263	0.247837870835005	0.246973111169976
2.87962129647449	0.248670253707348	0.246234047202887
2.88484746942635	0.249511491340017	0.245506247053126
2.8900736423782	0.250360666056826	0.244790344596665
2.89529981533006	0.251216831150294	0.244086940761705
2.90052598828192	0.252079012135855	0.243396603252508
2.90575216123378	0.252946208106743	0.24271986637927
2.91097833418564	0.25381739318689	0.242057230992915
2.9162045071375	0.254691518078841	0.241409164523297
2.92143068008936	0.255567511703339	0.240776101118959
2.92665685304122	0.256444282926863	0.240158441886219
2.93188302599308	0.257320722373105	0.239556555225036
2.93710919894494	0.258195704314022	0.238970777258754
2.9423353718968	0.25906808863581	0.23840141235452