TITLE=FvSolution
VARIABLES=time leftInterface rightInterface

ZONE T=TA
9.7705e-06 0.274517 0.223736
0.0019531 0.274517 0.223736
0.00390607 0.274517 0.223736
0.005859 0.274517 0.223736
0.00781178 0.274517 0.225483
0.00976448 0.274517 0.225483
0.0117173 0.274517 0.225483
0.01367 0.274517 0.225483
0.0156228 0.274517 0.225483
0.0175756 0.274517 0.225483
0.0195282 0.274517 0.225483
0.0214809 0.274517 0.225483
0.0234335 0.274517 0.225483
0.0253861 0.274517 0.225483
0.0273388 0.274517 0.225483
0.029291 0.274517 0.225483
0.0312436 0.274517 0.225483
0.0331959 0.274517 0.225483
0.0351483 0.274517 0.225483
0.0371009 0.274517 0.225483
0.0390534 0.274517 0.225483
0.0410055 0.274517 0.225483
0.0429578 0.274517 0.225483
0.04491 0.274517 0.225483
0.0468624 0.274517 0.225483
0.0488149 0.274517 0.225483
0.050767 0.274517 0.225483
0.0527192 0.274517 0.225483
0.0546713 0.273438 0.226562
0.0566234 0.273438 0.226562
0.0585757 0.273438 0.226562
0.060528 0.273438 0.226562
0.0624799 0.273438 0.226562
0.0644321 0.273438 0.226562
0.0663839 0.273438 0.226562
0.0683358 0.273438 0.226562
0.0702881 0.273438 0.226562
0.0722402 0.272358 0.226562
0.0741921 0.272358 0.227642
0.076144 0.272358 0.227642
0.0780954 0.272358 0.227642
0.0800473 0.272358 0.227642
0.0819997 0.272358 0.227642
0.0839516 0.272358 0.227642
0.0859033 0.272358 0.227642
0.0878548 0.272358 0.227642
0.0898061 0.272358 0.227642
0.0917581 0.270611 0.229389
0.0937103 0.270611 0.229389
0.0956621 0.270611 0.229389
0.0976135 0.270611 0.229389
0.0995646 0.270611 0.229389
0.101512 0.270611 0.229389
0.103464 0.270611 0.229389
0.105416 0.270611 0.229389
0.107368 0.269531 0.230469
0.109319 0.269531 0.230469
0.11127 0.269531 0.230469
0.113222 0.269531 0.230469
0.115173 0.269531 0.230469
0.117126 0.269531 0.230469
0.119077 0.268452 0.231548
0.121029 0.268452 0.231548
0.122979 0.268452 0.231548
0.12493 0.268452 0.231548
0.126882 0.268452 0.231548
0.128834 0.268452 0.231548
0.130786 0.268452 0.233295
0.132737 0.266705 0.233295
0.134688 0.266705 0.233295
0.136638 0.266705 0.233295
0.13859 0.266705 0.233295
0.140542 0.266705 0.233295
0.142494 0.266705 0.233295
0.144445 0.265625 0.234375
0.146395 0.265625 0.234375
0.148345 0.265625 0.234375
0.150297 0.265625 0.234375
0.152249 0.265625 0.235455
0.154201 0.264545 0.235455
0.156152 0.264545 0.235455
0.158102 0.264545 0.235455
0.160052 0.264545 0.235455
0.162003 0.264545 0.235455
0.163955 0.264545 0.237202
0.165907 0.262798 0.237202
0.167859 0.262798 0.237202
0.169809 0.262798 0.237202
0.171758 0.262798 0.237202
0.173709 0.262798 0.237202
0.175661 0.262798 0.238281
0.177613 0.261719 0.238281
0.179565 0.261719 0.238281
0.181515 0.261719 0.238281
0.183464 0.261719 0.239361
0.185414 0.261719 0.239361
0.187366 0.260639 0.239361
0.189318 0.260639 0.239361
0.19127 0.260639 0.239361
0.19322 0.260639 0.241108
0.195169 0.260639 0.241108
0.197119 0.258892 0.241108
0.19907 0.258892 0.241108
0.201015 0.258892 0.241108
0.202967 0.258892 0.242188
0.204918 0.258892 0.242188
0.206868 0.258892 0.242188
0.208817 0.257812 0.242188
0.210767 0.257812 0.243267
0.212719 0.257812 0.243267
0.214671 0.257812 0.243267
0.216623 0.256733 0.243267
0.218573 0.256733 0.245014
0.220522 0.256733 0.245014
0.222472 0.256733 0.245014
0.224423 0.256733 0.245014
0.226375 0.256733 0.245014
0.228327 0.254986 0.246094
0.230278 0.254986 0.246094
0.232228 0.254986 0.246094
0.234177 0.254986 0.246094
0.236127 0.254986 0.247173
0.238079 0.253906 0.247173
0.240031 0.253906 0.247173
0.241983 0.253906 0.247173
0.243933 0.253906 0.24892
0.245882 0.252827 0.24892
0.247832 0.252827 0.24892
0.249783 0.252827 0.24892
0.251735 0.252827 0.24892
0.253687 0.252827 0.25
0.255638 0.252827 0.25
0.257588 0.25108 0.25
0.259538 0.25108 0.25108
0.261488 0.25108 0.25108
0.26344 0.25108 0.25108
0.265392 0.25108 0.25108
0.267344 0.25 0.25108
0.269294 0.25 0.252827
0.271244 0.25 0.252827
0.273194 0.25 0.252827
0.275145 0.24892 0.252827
0.277097 0.24892 0.253906
0.279049 0.24892 0.253906
0.281 0.24892 0.253906
0.28295 0.24892 0.253906
0.2849 0.24892 0.254986
0.286851 0.247173 0.254986
0.288803 0.247173 0.254986
0.290754 0.247173 0.254986
0.292705 0.247173 0.256733
0.294656 0.247173 0.256733
0.296606 0.246094 0.256733
0.298557 0.246094 0.256733
0.300508 0.246094 0.256733
0.302459 0.246094 0.257812
0.30441 0.246094 0.257812
0.306361 0.245014 0.257812
0.308311 0.245014 0.258892
0.310261 0.245014 0.258892
0.312213 0.245014 0.258892
0.314165 0.245014 0.258892
0.316117 0.245014 0.258892
0.318068 0.243267 0.260639
0.320018 0.243267 0.260639
0.321968 0.243267 0.260639
0.323919 0.243267 0.260639
0.325871 0.243267 0.260639
0.327823 0.243267 0.261719
0.329775 0.242188 0.261719
0.331726 0.242188 0.261719
0.333675 0.242188 0.262798
0.335626 0.242188 0.262798
0.337577 0.241108 0.262798
0.339529 0.241108 0.262798
0.341481 0.241108 0.262798
0.343433 0.241108 0.264545
0.345383 0.241108 0.264545
0.347333 0.241108 0.264545
0.349283 0.239361 0.264545
0.351235 0.239361 0.264545
0.353187 0.239361 0.265625
0.355139 0.239361 0.265625
0.357091 0.239361 0.265625
0.359041 0.239361 0.265625
0.360991 0.239361 0.266705
0.362942 0.238281 0.266705
0.364894 0.238281 0.266705
0.366846 0.238281 0.266705
0.368798 0.238281 0.266705
0.37075 0.238281 0.268452
0.3727 0.237202 0.268452
0.374651 0.237202 0.268452
0.376602 0.237202 0.268452
0.378554 0.237202 0.268452
0.380506 0.237202 0.268452
0.382458 0.237202 0.269531
0.384409 0.237202 0.269531
0.38636 0.235455 0.269531
0.388312 0.235455 0.269531
0.390263 0.235455 0.269531
0.392216 0.235455 0.270611
0.394167 0.235455 0.270611
0.396119 0.235455 0.270611
0.39807 0.235455 0.270611
0.40002 0.234375 0.270611
0.401972 0.234375 0.270611
0.403924 0.234375 0.272358
0.405876 0.234375 0.272358
0.407828 0.234375 0.272358
0.409779 0.234375 0.272358
0.41173 0.234375 0.272358
0.413681 0.233295 0.272358
0.415634 0.233295 0.272358
0.417586 0.233295 0.273438
0.419538 0.233295 0.273438
0.42149 0.233295 0.273438
0.423441 0.233295 0.273438
0.425392 0.233295 0.273438
0.427344 0.233295 0.273438
0.429296 0.231548 0.273438
0.431249 0.231548 0.274517
0.433201 0.231548 0.274517
0.435153 0.231548 0.274517
0.437105 0.231548 0.274517
0.439056 0.231548 0.274517
0.441007 0.231548 0.274517
0.44296 0.231548 0.274517
0.444912 0.231548 0.274517
0.446863 0.231548 0.274517
0.448816 0.231548 0.274517
0.450767 0.230469 0.276264
0.452719 0.230469 0.276264
0.45467 0.230469 0.276264
0.456623 0.230469 0.276264
0.458575 0.230469 0.276264
0.460527 0.230469 0.276264
0.46248 0.230469 0.276264
0.464432 0.230469 0.276264
0.466384 0.230469 0.276264
0.468336 0.229389 0.276264
0.470288 0.229389 0.276264
0.472241 0.229389 0.276264
0.474193 0.229389 0.276264
0.476145 0.229389 0.276264
0.478098 0.229389 0.276264
0.48005 0.229389 0.276264
0.482003 0.229389 0.276264
0.483955 0.229389 0.276264
0.485907 0.229389 0.277344
0.487859 0.229389 0.277344
0.489812 0.229389 0.277344
0.491764 0.229389 0.277344
0.493717 0.229389 0.277344
0.495669 0.229389 0.277344
0.497622 0.229389 0.277344
0.499574 0.229389 0.277344
0.501523 0.227642 0.277344
0.503475 0.227642 0.277344
0.505427 0.227642 0.277344
0.50738 0.227642 0.277344
0.509333 0.227642 0.277344
0.511285 0.227642 0.277344
0.513237 0.227642 0.277344
0.515189 0.227642 0.277344
0.517141 0.227642 0.277344
0.519094 0.227642 0.277344
0.521046 0.227642 0.277344
0.522999 0.227642 0.276264
0.524951 0.227642 0.276264
0.526903 0.227642 0.276264
0.528854 0.227642 0.276264
0.530806 0.227642 0.276264
0.532759 0.227642 0.276264
0.534711 0.227642 0.276264
0.536664 0.227642 0.276264
0.538616 0.227642 0.276264
0.540567 0.227642 0.276264
0.542518 0.227642 0.276264
0.54447 0.227642 0.276264
0.546422 0.227642 0.276264
0.548374 0.227642 0.276264
0.550327 0.227642 0.276264
0.552279 0.227642 0.276264
0.554231 0.227642 0.276264
0.556181 0.227642 0.276264
0.558133 0.227642 0.276264
0.560085 0.227642 0.276264
0.562038 0.227642 0.274517
0.56399 0.227642 0.274517
0.565943 0.227642 0.274517
0.567895 0.227642 0.274517
0.569846 0.227642 0.274517
0.571796 0.227642 0.274517
0.573748 0.227642 0.274517
0.575701 0.227642 0.274517
0.577653 0.227642 0.274517
0.579606 0.227642 0.274517
0.581558 0.227642 0.273438
0.583509 0.227642 0.273438
0.585459 0.227642 0.273438
0.587411 0.227642 0.273438
0.589363 0.227642 0.273438
0.591315 0.229389 0.273438
0.593268 0.229389 0.273438
0.59522 0.229389 0.272358
0.597171 0.229389 0.272358
0.599121 0.229389 0.272358
0.601064 0.229389 0.272358
0.603016 0.229389 0.272358
0.604968 0.229389 0.272358
0.60692 0.229389 0.272358
0.608872 0.229389 0.272358
0.610823 0.229389 0.270611
0.612774 0.229389 0.270611
0.614725 0.229389 0.270611
0.616677 0.229389 0.270611
0.618629 0.229389 0.270611
0.620581 0.229389 0.270611
0.622533 0.229389 0.270611
0.624484 0.230469 0.269531
0.626434 0.230469 0.269531
0.628385 0.230469 0.269531
0.630336 0.230469 0.269531
0.632289 0.230469 0.269531
0.634241 0.230469 0.268452
0.636193 0.230469 0.268452
0.638143 0.230469 0.268452
0.640094 0.230469 0.268452
0.642044 0.231548 0.268452
0.643995 0.231548 0.268452
0.645947 0.231548 0.266705
0.6479 0.231548 0.266705
0.649852 0.231548 0.266705
0.651803 0.231548 0.266705
0.653753 0.231548 0.266705
0.655703 0.231548 0.266705
0.657654 0.231548 0.265625
0.659605 0.231548 0.265625
0.661558 0.233295 0.265625
0.66351 0.233295 0.265625
0.665462 0.233295 0.264545
0.667412 0.233295 0.264545
0.669362 0.233295 0.264545
0.671312 0.233295 0.264545
0.673262 0.233295 0.264545
0.675215 0.233295 0.264545
0.677167 0.234375 0.262798
0.679119 0.234375 0.262798
0.68107 0.234375 0.262798
0.68302 0.234375 0.262798
0.684969 0.234375 0.262798
0.686919 0.234375 0.261719
0.688871 0.235455 0.261719
0.690823 0.235455 0.261719
0.692776 0.235455 0.261719
0.694727 0.235455 0.261719
0.696678 0.235455 0.260639
0.698627 0.235455 0.260639
0.700575 0.235455 0.260639
0.702525 0.237202 0.260639
0.704477 0.237202 0.260639
0.706429 0.237202 0.258892
0.708382 0.237202 0.258892
0.710333 0.237202 0.258892
0.712283 0.237202 0.258892
0.714233 0.238281 0.258892
0.716182 0.238281 0.257812
0.718132 0.238281 0.257812
0.720084 0.238281 0.257812
0.722037 0.238281 0.257812
0.723989 0.239361 0.256733
0.72594 0.239361 0.256733
0.727889 0.239361 0.256733
0.729839 0.239361 0.256733
0.731788 0.239361 0.256733
0.733739 0.239361 0.256733
0.735691 0.241108 0.254986
0.737643 0.241108 0.254986
0.739595 0.241108 0.254986
0.741546 0.241108 0.254986
0.743496 0.241108 0.254986
0.745445 0.242188 0.253906
0.747394 0.242188 0.253906
0.749345 0.242188 0.253906
0.751297 0.242188 0.253906
0.753249 0.242188 0.252827
0.755201 0.243267 0.252827
0.757152 0.243267 0.252827
0.759101 0.243267 0.252827
0.76105 0.243267 0.252827
0.763 0.243267 0.25108
0.764951 0.245014 0.25108
0.766903 0.245014 0.25108
0.768855 0.245014 0.25108
0.770806 0.245014 0.25108
0.772756 0.245014 0.25108
0.774706 0.246094 0.25
0.776655 0.246094 0.25
0.778605 0.246094 0.25
0.780556 0.246094 0.25
0.782508 0.247173 0.24892
0.784459 0.247173 0.24892
0.786411 0.247173 0.24892
0.788362 0.247173 0.24892
0.790311 0.24892 0.24892
0.792261 0.24892 0.247173
0.794211 0.24892 0.247173
0.796162 0.24892 0.247173
0.798113 0.24892 0.247173
0.800059 0.25 0.247173
0.80201 0.25 0.247173
0.80396 0.25 0.246094
0.80591 0.25 0.246094
0.80786 0.25108 0.246094
0.809811 0.25108 0.246094
0.811761 0.25108 0.246094
0.813712 0.25108 0.245014
0.815664 0.252827 0.245014
0.817615 0.252827 0.245014
0.819566 0.252827 0.245014
0.821516 0.252827 0.245014
0.823467 0.252827 0.245014
0.825417 0.253906 0.243267
0.827367 0.253906 0.243267
0.829318 0.253906 0.243267
0.831269 0.254986 0.243267
0.83322 0.254986 0.243267
0.835171 0.254986 0.243267
0.837122 0.254986 0.242188
0.839073 0.254986 0.242188
0.841023 0.256733 0.242188
0.842974 0.256733 0.242188
0.844925 0.256733 0.242188
0.846876 0.256733 0.241108
0.848826 0.257812 0.241108
0.850777 0.257812 0.241108
0.852729 0.257812 0.241108
0.85468 0.257812 0.241108
0.856631 0.258892 0.241108
0.858582 0.258892 0.241108
0.860532 0.258892 0.239361
0.862482 0.258892 0.239361
0.864433 0.260639 0.239361
0.866384 0.260639 0.239361
0.868335 0.260639 0.239361
0.870287 0.260639 0.239361
0.872238 0.260639 0.239361
0.87419 0.261719 0.238281
0.87614 0.261719 0.238281
0.878091 0.261719 0.238281
0.880041 0.262798 0.238281
0.881991 0.262798 0.238281
0.883943 0.262798 0.238281
0.885895 0.262798 0.237202
0.887847 0.262798 0.237202
0.889799 0.264545 0.237202
0.89175 0.264545 0.237202
0.8937 0.264545 0.237202
0.89565 0.264545 0.237202
0.8976 0.264545 0.237202
0.899551 0.265625 0.237202
0.901503 0.265625 0.235455
0.903455 0.265625 0.235455
0.905408 0.266705 0.235455
0.907359 0.266705 0.235455
0.90931 0.266705 0.235455
0.91126 0.266705 0.235455
0.913211 0.266705 0.235455
0.915161 0.266705 0.235455
0.917113 0.268452 0.235455
0.919065 0.268452 0.234375
0.921017 0.268452 0.234375
0.92297 0.268452 0.234375
0.924921 0.268452 0.234375
0.926872 0.269531 0.234375
0.928822 0.269531 0.234375
0.930773 0.269531 0.234375
0.932724 0.269531 0.234375
0.934676 0.270611 0.233295
0.936629 0.270611 0.233295
0.938581 0.270611 0.233295
0.940533 0.270611 0.233295
0.942484 0.270611 0.233295
0.944436 0.270611 0.233295
0.946387 0.272358 0.233295
0.948338 0.272358 0.233295
0.95029 0.272358 0.233295
0.952242 0.272358 0.233295
0.954194 0.272358 0.233295
0.956146 0.272358 0.233295
0.958098 0.273438 0.231548
0.96005 0.273438 0.231548
0.962001 0.273438 0.231548
0.963953 0.273438 0.231548
0.965905 0.273438 0.231548
0.967857 0.274517 0.231548
0.969808 0.274517 0.231548
0.97176 0.274517 0.231548
0.973712 0.274517 0.231548
0.975664 0.274517 0.231548
0.977617 0.274517 0.231548
0.979569 0.274517 0.231548
0.981522 0.274517 0.231548
0.983473 0.276264 0.231548
0.985425 0.276264 0.231548
0.987376 0.276264 0.231548
0.989328 0.276264 0.231548
0.99128 0.276264 0.230469
0.993233 0.276264 0.230469
0.995186 0.276264 0.230469
0.997138 0.276264 0.230469
0.999091 0.276264 0.230469
1.00103 0.277344 0.230469
1.00299 0.277344 0.230469
1.00494 0.277344 0.230469
1.00689 0.277344 0.230469
1.00884 0.277344 0.230469
1.0108 0.277344 0.230469
1.01275 0.277344 0.230469
1.0147 0.277344 0.230469
1.01665 0.277344 0.230469
1.0186 0.277344 0.230469
1.02056 0.277344 0.230469
1.02251 0.277344 0.230469
1.02446 0.278423 0.230469
1.02641 0.278423 0.230469
1.02837 0.278423 0.230469
1.03032 0.278423 0.230469
1.03227 0.278423 0.230469
1.03422 0.278423 0.230469
1.03618 0.278423 0.230469
1.03813 0.278423 0.230469
1.04008 0.278423 0.230469
1.04203 0.278423 0.230469
1.04399 0.278423 0.230469
1.04594 0.278423 0.230469
1.04789 0.278423 0.230469
1.04984 0.278423 0.230469
1.0518 0.278423 0.230469
1.05375 0.278423 0.230469
1.0557 0.278423 0.230469
1.05766 0.278423 0.230469
1.05961 0.278423 0.230469
1.06156 0.278423 0.230469
1.06351 0.278423 0.230469
1.06547 0.278423 0.230469
1.06742 0.278423 0.230469
1.06937 0.278423 0.230469
1.07132 0.278423 0.230469
1.07328 0.278423 0.230469
1.07523 0.278423 0.230469
1.07718 0.278423 0.230469
1.07913 0.278423 0.230469
1.08109 0.278423 0.230469
1.08304 0.278423 0.230469
1.08499 0.278423 0.230469
1.08694 0.277344 0.230469
1.0889 0.277344 0.230469
1.09085 0.277344 0.230469
1.0928 0.277344 0.230469
1.09475 0.277344 0.230469
1.09671 0.277344 0.230469
1.09866 0.277344 0.230469
1.10061 0.277344 0.230469
1.10256 0.277344 0.230469
1.10451 0.277344 0.230469
1.10647 0.277344 0.230469
1.10842 0.276264 0.231548
1.11037 0.276264 0.231548
1.11232 0.276264 0.231548
1.11427 0.276264 0.231548
1.11623 0.276264 0.231548
1.11818 0.276264 0.231548
1.12013 0.276264 0.231548
1.12208 0.276264 0.231548
1.12403 0.276264 0.231548
1.12599 0.276264 0.231548
1.12794 0.274517 0.231548
1.12989 0.274517 0.231548
1.13184 0.274517 0.231548
1.1338 0.274517 0.231548
1.13575 0.274517 0.231548
1.1377 0.274517 0.231548
1.13965 0.274517 0.231548
1.1416 0.273438 0.233295
1.14355 0.273438 0.233295
1.1455 0.273438 0.233295
1.14746 0.273438 0.233295
1.14941 0.273438 0.233295
1.15136 0.272358 0.233295
1.15331 0.272358 0.233295
1.15526 0.272358 0.233295
1.15722 0.272358 0.233295
1.15917 0.272358 0.233295
1.16112 0.272358 0.233295
1.16307 0.270611 0.233295
1.16502 0.270611 0.234375
1.16697 0.270611 0.234375
1.16892 0.270611 0.234375
1.17088 0.270611 0.234375
1.17283 0.270611 0.234375
1.17478 0.269531 0.234375
1.17673 0.269531 0.234375
1.17868 0.269531 0.234375
1.18063 0.269531 0.235455
1.18258 0.268452 0.235455
1.18453 0.268452 0.235455
1.18649 0.268452 0.235455
1.18844 0.268452 0.235455
1.19039 0.268452 0.235455
1.19234 0.266705 0.235455
1.19429 0.266705 0.235455
1.19624 0.266705 0.235455
1.19819 0.266705 0.237202
1.20014 0.266705 0.237202
1.20209 0.265625 0.237202
1.20404 0.265625 0.237202
1.20599 0.265625 0.237202
1.20795 0.265625 0.237202
1.2099 0.264545 0.237202
1.21185 0.264545 0.237202
1.2138 0.264545 0.237202
1.21575 0.264545 0.238281
1.2177 0.264545 0.238281
1.21965 0.262798 0.238281
1.2216 0.262798 0.238281
1.22355 0.262798 0.238281
1.2255 0.262798 0.238281
1.22745 0.261719 0.239361
1.2294 0.261719 0.239361
1.23135 0.261719 0.239361
1.2333 0.261719 0.239361
1.23525 0.260639 0.239361
1.2372 0.260639 0.239361
1.23915 0.260639 0.239361
1.2411 0.260639 0.241108
1.24305 0.258892 0.241108
1.24501 0.258892 0.241108
1.24696 0.258892 0.241108
1.24891 0.258892 0.241108
1.25086 0.258892 0.241108
1.2528 0.257812 0.241108
1.25475 0.257812 0.242188
1.2567 0.257812 0.242188
1.25865 0.256733 0.242188
1.26061 0.256733 0.242188
1.26256 0.256733 0.242188
1.26451 0.256733 0.243267
1.26646 0.254986 0.243267
1.26841 0.254986 0.243267
1.27036 0.254986 0.243267
1.27231 0.254986 0.243267
1.27426 0.254986 0.243267
1.27621 0.253906 0.245014
1.27816 0.253906 0.245014
1.28011 0.253906 0.245014
1.28206 0.252827 0.245014
1.28401 0.252827 0.245014
1.28596 0.252827 0.245014
1.28791 0.252827 0.246094
1.28986 0.25108 0.246094
1.29181 0.25108 0.246094
1.29376 0.25108 0.246094
1.29571 0.25108 0.246094
1.29766 0.25108 0.247173
1.29961 0.25 0.247173
1.30156 0.25 0.247173
1.30351 0.25 0.247173
1.30546 0.24892 0.247173
1.30741 0.24892 0.247173
1.30936 0.24892 0.24892
1.31131 0.24892 0.24892
1.31326 0.24892 0.24892
1.31521 0.247173 0.24892
1.31716 0.247173 0.24892
1.31911 0.247173 0.25
1.32106 0.247173 0.25
1.32301 0.246094 0.25
1.32496 0.246094 0.25
1.32691 0.246094 0.25
1.32886 0.246094 0.25108
1.33082 0.245014 0.25108
1.33277 0.245014 0.25108
1.33472 0.245014 0.25108
1.33667 0.245014 0.25108
1.33861 0.245014 0.252827
1.34056 0.243267 0.252827
1.34251 0.243267 0.252827
1.34447 0.243267 0.252827
1.34642 0.243267 0.252827
1.34837 0.243267 0.252827
1.35032 0.242188 0.253906
1.35227 0.242188 0.253906
1.35422 0.242188 0.253906
1.35617 0.241108 0.253906
1.35812 0.241108 0.254986
1.36007 0.241108 0.254986
1.36202 0.241108 0.254986
1.36397 0.241108 0.254986
1.36592 0.241108 0.254986
1.36787 0.239361 0.256733
1.36982 0.239361 0.256733
1.37177 0.239361 0.256733
1.37372 0.239361 0.256733
1.37567 0.239361 0.256733
1.37762 0.238281 0.256733
1.37957 0.238281 0.257812
1.38153 0.238281 0.257812
1.38348 0.238281 0.257812
1.38543 0.238281 0.257812
1.38738 0.237202 0.258892
1.38933 0.237202 0.258892
1.39128 0.237202 0.258892
1.39323 0.237202 0.258892
1.39518 0.237202 0.258892
1.39713 0.237202 0.258892
1.39908 0.235455 0.260639
1.40103 0.235455 0.260639
1.40298 0.235455 0.260639
1.40493 0.235455 0.260639
1.40688 0.235455 0.260639
1.40883 0.235455 0.261719
1.41078 0.234375 0.261719
1.41273 0.234375 0.261719
1.41469 0.234375 0.261719
1.41664 0.234375 0.261719
1.41859 0.234375 0.262798
1.42054 0.234375 0.262798
1.42249 0.233295 0.262798
1.42444 0.233295 0.262798
1.42639 0.233295 0.262798
1.42834 0.233295 0.262798
1.43029 0.233295 0.264545
1.43224 0.233295 0.264545
1.4342 0.233295 0.264545
1.43615 0.233295 0.264545
1.4381 0.231548 0.264545
1.44005 0.231548 0.264545
1.442 0.231548 0.265625
1.44395 0.231548 0.265625
1.4459 0.231548 0.265625
1.44785 0.231548 0.265625
1.4498 0.231548 0.266705
1.45176 0.231548 0.266705
1.45371 0.231548 0.266705
1.45566 0.230469 0.266705
1.45761 0.230469 0.266705
1.45956 0.230469 0.266705
1.46151 0.230469 0.266705
1.46346 0.230469 0.268452
1.46542 0.230469 0.268452
1.46737 0.230469 0.268452
1.46932 0.230469 0.268452
1.47127 0.230469 0.268452
1.47322 0.229389 0.268452
1.47517 0.229389 0.268452
1.47712 0.229389 0.269531
1.47908 0.229389 0.269531
1.48103 0.229389 0.269531
1.48298 0.229389 0.269531
1.48493 0.229389 0.269531
1.48688 0.229389 0.270611
1.48883 0.229389 0.270611
1.49078 0.229389 0.270611
1.49273 0.229389 0.270611
1.49469 0.229389 0.270611
1.49664 0.229389 0.270611
1.49859 0.229389 0.270611
1.50054 0.229389 0.270611
1.5025 0.227642 0.270611
1.50445 0.227642 0.272358
1.5064 0.227642 0.272358
1.50835 0.227642 0.272358
1.5103 0.227642 0.272358
1.51225 0.227642 0.272358
1.5142 0.227642 0.272358
1.51616 0.227642 0.272358
1.51811 0.227642 0.272358
1.52006 0.227642 0.272358
1.52201 0.227642 0.273438
1.52397 0.227642 0.273438
1.52592 0.227642 0.273438
1.52787 0.227642 0.273438
1.52982 0.227642 0.273438
1.53177 0.227642 0.273438
1.53372 0.227642 0.273438
1.53568 0.227642 0.273438
1.53763 0.227642 0.273438
1.53958 0.227642 0.273438
1.54153 0.227642 0.274517
1.54348 0.227642 0.274517
1.54543 0.227642 0.274517
1.54739 0.227642 0.274517
1.54934 0.227642 0.274517
1.55129 0.227642 0.274517
1.55324 0.227642 0.274517
1.5552 0.227642 0.274517
1.55715 0.227642 0.274517
1.5591 0.227642 0.274517
1.56105 0.227642 0.274517
1.563 0.227642 0.274517
1.56496 0.227642 0.274517
1.56691 0.227642 0.274517
1.56886 0.227642 0.274517
1.57081 0.227642 0.274517
1.57277 0.227642 0.274517
1.57472 0.227642 0.274517
1.57667 0.227642 0.274517
1.57862 0.227642 0.274517
1.58057 0.227642 0.274517
1.58253 0.227642 0.274517
1.58448 0.227642 0.274517
1.58643 0.227642 0.274517
1.58838 0.227642 0.274517
1.59034 0.227642 0.274517
1.59229 0.227642 0.274517
1.59424 0.227642 0.274517
1.59619 0.227642 0.274517
1.59815 0.229389 0.274517
1.6001 0.229389 0.274517
1.60205 0.229389 0.274517
1.604 0.229389 0.274517
1.60595 0.229389 0.274517
1.60791 0.229389 0.274517
1.60986 0.229389 0.274517
1.61181 0.229389 0.274517
1.61376 0.229389 0.274517
1.61572 0.229389 0.274517
1.61767 0.229389 0.274517
1.61962 0.229389 0.274517
1.62157 0.229389 0.274517
1.62352 0.229389 0.274517
1.62548 0.229389 0.274517
1.62743 0.229389 0.274517
1.62938 0.230469 0.274517
1.63133 0.230469 0.274517
1.63328 0.230469 0.274517
1.63524 0.230469 0.274517
1.63719 0.230469 0.274517
1.63914 0.230469 0.274517
1.64109 0.230469 0.274517
1.64304 0.230469 0.274517
1.64499 0.230469 0.273438
1.64695 0.231548 0.273438
1.6489 0.231548 0.273438
1.65085 0.231548 0.273438
1.6528 0.231548 0.273438
1.65475 0.231548 0.273438
1.65671 0.231548 0.273438
1.65866 0.231548 0.273438
1.66061 0.231548 0.273438
1.66256 0.231548 0.273438
1.66451 0.231548 0.272358
1.66647 0.233295 0.272358
1.66842 0.233295 0.272358
1.67037 0.233295 0.272358
1.67232 0.233295 0.272358
1.67427 0.233295 0.272358
1.67622 0.233295 0.272358
1.67817 0.233295 0.272358
1.68012 0.233295 0.272358
1.68208 0.233295 0.270611
1.68403 0.234375 0.270611
1.68598 0.234375 0.270611
1.68793 0.234375 0.270611
1.68988 0.234375 0.270611
1.69184 0.234375 0.270611
1.69379 0.234375 0.270611
1.69574 0.235455 0.270611
1.69769 0.235455 0.269531
1.69964 0.235455 0.269531
1.70159 0.235455 0.269531
1.70354 0.235455 0.269531
1.7055 0.235455 0.269531
1.70745 0.235455 0.268452
1.7094 0.237202 0.268452
1.71135 0.237202 0.268452
1.7133 0.237202 0.268452
1.71525 0.237202 0.268452
1.7172 0.237202 0.268452
1.71915 0.237202 0.268452
1.7211 0.237202 0.266705
1.72306 0.238281 0.266705
1.72501 0.238281 0.266705
1.72696 0.238281 0.266705
1.72891 0.238281 0.266705
1.73086 0.238281 0.266705
1.73281 0.238281 0.265625
1.73476 0.239361 0.265625
1.73671 0.239361 0.265625
1.73866 0.239361 0.265625
1.74062 0.239361 0.265625
1.74257 0.239361 0.264545
1.74452 0.239361 0.264545
1.74647 0.241108 0.264545
1.74842 0.241108 0.264545
1.75037 0.241108 0.264545
1.75232 0.241108 0.262798
1.75427 0.241108 0.262798
1.75622 0.241108 0.262798
1.75817 0.242188 0.262798
1.76012 0.242188 0.262798
1.76207 0.242188 0.262798
1.76403 0.242188 0.261719
1.76598 0.242188 0.261719
1.76793 0.243267 0.261719
1.76988 0.243267 0.261719
1.77183 0.243267 0.260639
1.77378 0.243267 0.260639
1.77573 0.243267 0.260639
1.77768 0.243267 0.260639
1.77963 0.245014 0.260639
1.78158 0.245014 0.258892
1.78353 0.245014 0.258892
1.78548 0.245014 0.258892
1.78744 0.245014 0.258892
1.78939 0.245014 0.258892
1.79134 0.246094 0.257812
1.79329 0.246094 0.257812
1.79524 0.246094 0.257812
1.79719 0.246094 0.257812
1.79914 0.247173 0.256733
1.80109 0.247173 0.256733
1.80304 0.247173 0.256733
1.80499 0.247173 0.256733
1.80694 0.247173 0.256733
1.80889 0.247173 0.254986
1.81084 0.24892 0.254986
1.81279 0.24892 0.254986
1.81474 0.24892 0.254986
1.81669 0.24892 0.253906
1.81864 0.24892 0.253906
1.82059 0.24892 0.253906
1.82255 0.25 0.253906
1.8245 0.25 0.252827
1.82645 0.25 0.252827
1.8284 0.25 0.252827
1.83035 0.25108 0.252827
1.8323 0.25108 0.252827
1.83425 0.25108 0.25108
1.8362 0.25108 0.25108
1.83815 0.25108 0.25108
1.8401 0.25108 0.25108
1.84205 0.252827 0.25108
1.844 0.252827 0.25
1.84595 0.252827 0.25
1.84791 0.252827 0.25
1.84986 0.252827 0.25
1.85181 0.253906 0.24892
1.85376 0.253906 0.24892
1.85571 0.253906 0.24892
1.85766 0.253906 0.24892
1.85961 0.253906 0.24892
1.86156 0.254986 0.247173
1.86351 0.254986 0.247173
1.86546 0.254986 0.247173
1.86741 0.254986 0.247173
1.86936 0.254986 0.246094
1.87131 0.256733 0.246094
1.87326 0.256733 0.246094
1.87521 0.256733 0.246094
1.87716 0.256733 0.245014
1.87911 0.256733 0.245014
1.88107 0.256733 0.245014
1.88302 0.257812 0.245014
1.88497 0.257812 0.245014
1.88692 0.257812 0.243267
1.88887 0.257812 0.243267
1.89082 0.257812 0.243267
1.89277 0.258892 0.243267
1.89472 0.258892 0.243267
1.89667 0.258892 0.243267
1.89862 0.258892 0.242188
1.90057 0.258892 0.242188
1.90253 0.258892 0.242188
1.90448 0.260639 0.242188
1.90643 0.260639 0.241108
1.90838 0.260639 0.241108
1.91033 0.260639 0.241108
1.91228 0.260639 0.241108
1.91423 0.260639 0.241108
1.91618 0.261719 0.241108
1.91813 0.261719 0.239361
1.92008 0.261719 0.239361
1.92203 0.261719 0.239361
1.92398 0.261719 0.239361
1.92594 0.262798 0.239361
1.92789 0.262798 0.238281
1.92984 0.262798 0.238281
1.93179 0.262798 0.238281
1.93374 0.262798 0.238281
1.93569 0.262798 0.238281
1.93764 0.262798 0.237202
1.93959 0.264545 0.237202
1.94154 0.264545 0.237202
1.94349 0.264545 0.237202
1.94545 0.264545 0.237202
1.9474 0.264545 0.237202
1.94935 0.264545 0.235455
1.9513 0.264545 0.235455
1.95325 0.265625 0.235455
1.9552 0.265625 0.235455
1.95715 0.265625 0.235455
1.95911 0.265625 0.235455
1.96106 0.265625 0.235455
1.96301 0.265625 0.234375
1.96496 0.266705 0.234375
1.96691 0.266705 0.234375
1.96886 0.266705 0.234375
1.97082 0.266705 0.234375
1.97277 0.266705 0.234375
1.97472 0.266705 0.233295
1.97667 0.266705 0.233295
1.97862 0.266705 0.233295
1.98057 0.266705 0.233295
1.98252 0.268452 0.233295
1.98447 0.268452 0.233295
1.98643 0.268452 0.233295
1.98838 0.268452 0.233295
1.99033 0.268452 0.231548
1.99228 0.268452 0.231548
1.99423 0.268452 0.231548
1.99618 0.268452 0.231548
1.99813 0.268452 0.231548
2.00009 0.269531 0.231548
2.00204 0.269531 0.231548
2.00399 0.269531 0.231548
2.00594 0.269531 0.231548
2.00789 0.269531 0.230469
2.00985 0.269531 0.230469
2.0118 0.269531 0.230469
2.01375 0.269531 0.230469
2.0157 0.269531 0.230469
2.01765 0.270611 0.230469
2.0196 0.270611 0.230469
2.02155 0.270611 0.230469
2.02351 0.270611 0.229389
2.02546 0.270611 0.229389
2.02741 0.270611 0.229389
2.02936 0.270611 0.229389
2.03132 0.270611 0.229389
2.03327 0.270611 0.229389
2.03522 0.270611 0.229389
2.03717 0.270611 0.229389
2.03912 0.270611 0.229389
2.04107 0.270611 0.229389
2.04303 0.270611 0.229389
2.04498 0.272358 0.229389
2.04693 0.272358 0.229389
2.04888 0.272358 0.229389
2.05084 0.272358 0.229389
2.05279 0.272358 0.227642
2.05474 0.272358 0.227642
2.05669 0.272358 0.227642
2.05864 0.272358 0.227642
2.0606 0.272358 0.227642
2.06255 0.272358 0.227642
2.0645 0.272358 0.227642
2.06645 0.272358 0.227642
2.0684 0.272358 0.227642
2.07036 0.272358 0.227642
2.07231 0.272358 0.227642
2.07426 0.272358 0.227642
2.07621 0.272358 0.227642
2.07817 0.272358 0.227642
2.08012 0.272358 0.227642
2.08207 0.272358 0.227642
2.08402 0.272358 0.227642
2.08598 0.272358 0.227642
2.08793 0.272358 0.227642
2.08988 0.272358 0.227642
2.09183 0.272358 0.227642
2.09378 0.272358 0.227642
2.09574 0.272358 0.227642
2.09769 0.272358 0.227642
2.09964 0.272358 0.227642
2.10159 0.272358 0.227642
2.10355 0.272358 0.227642
2.1055 0.272358 0.227642
2.10745 0.272358 0.227642
2.1094 0.272358 0.227642
2.11136 0.272358 0.227642
2.11331 0.272358 0.227642
2.11526 0.272358 0.227642
2.11721 0.272358 0.227642
2.11917 0.272358 0.227642
2.12112 0.272358 0.227642
2.12307 0.272358 0.227642
2.12502 0.272358 0.227642
2.12697 0.272358 0.227642
2.12893 0.272358 0.227642
2.13088 0.272358 0.227642
2.13283 0.272358 0.227642
2.13478 0.272358 0.227642
2.13673 0.272358 0.227642
2.13869 0.272358 0.227642
2.14064 0.272358 0.227642
2.14259 0.270611 0.227642
2.14454 0.270611 0.227642
2.14649 0.270611 0.227642
2.14845 0.270611 0.227642
2.1504 0.270611 0.227642
2.15235 0.270611 0.227642
2.1543 0.270611 0.229389
2.15625 0.270611 0.229389
2.1582 0.270611 0.229389
2.16016 0.270611 0.229389
2.16211 0.270611 0.229389
2.16406 0.270611 0.229389
2.16601 0.270611 0.229389
2.16796 0.270611 0.229389
2.16992 0.270611 0.229389
2.17187 0.270611 0.229389
2.17382 0.269531 0.229389
2.17577 0.269531 0.229389
2.17772 0.269531 0.229389
2.17967 0.269531 0.229389
2.18162 0.269531 0.230469
2.18358 0.269531 0.230469
2.18553 0.269531 0.230469
2.18748 0.269531 0.230469
2.18943 0.268452 0.230469
2.19138 0.268452 0.230469
2.19333 0.268452 0.230469
2.19528 0.268452 0.230469
2.19723 0.268452 0.230469
2.19919 0.268452 0.231548
2.20114 0.268452 0.231548
2.20309 0.268452 0.231548
2.20504 0.268452 0.231548
2.20699 0.268452 0.231548
2.20895 0.266705 0.231548
2.2109 0.266705 0.231548
2.21285 0.266705 0.231548
2.2148 0.266705 0.231548
2.21675 0.266705 0.233295
2.2187 0.266705 0.233295
2.22065 0.266705 0.233295
2.2226 0.266705 0.233295
2.22456 0.266705 0.233295
2.22651 0.265625 0.233295