TITLE=FvSolution
VARIABLES=time leftInterface rightInterface

ZONE T=TA
9.7705e-06 0.274517 0.223736
0.00195399 0.274517 0.223736
0.00390781 0.274517 0.223736
0.00586151 0.274517 0.223736
0.00781521 0.274517 0.225483
0.00976892 0.274517 0.225483
0.0117227 0.274517 0.225483
0.0136765 0.274517 0.225483
0.0156302 0.274517 0.225483
0.0175838 0.274517 0.225483
0.0195374 0.274517 0.225483
0.0214912 0.274517 0.225483
0.0234448 0.274517 0.225483
0.0253985 0.274517 0.225483
0.027352 0.274517 0.225483
0.0293055 0.274517 0.225483
0.0312591 0.274517 0.225483
0.0332127 0.274517 0.225483
0.0351662 0.274517 0.225483
0.0371198 0.274517 0.225483
0.0390732 0.274517 0.225483
0.0410268 0.274517 0.225483
0.0429802 0.274517 0.225483
0.0449336 0.274517 0.225483
0.0468871 0.274517 0.225483
0.0488405 0.274517 0.225483
0.0507938 0.274517 0.225483
0.0527472 0.273438 0.226562
0.0547004 0.273438 0.226562
0.0566538 0.273438 0.226562
0.0586068 0.273438 0.226562
0.0605597 0.273438 0.226562
0.0625124 0.273438 0.226562
0.0644651 0.273438 0.226562
0.0664178 0.273438 0.226562
0.0683705 0.273438 0.226562
0.0703231 0.273438 0.226562
0.0722758 0.272358 0.227642
0.0742285 0.272358 0.227642
0.0761813 0.272358 0.227642
0.0781344 0.272358 0.227642
0.0800874 0.272358 0.227642
0.0820405 0.272358 0.227642
0.0839935 0.272358 0.227642
0.0859463 0.272358 0.227642
0.0878993 0.272358 0.227642
0.0898523 0.272358 0.227642
0.0918054 0.270611 0.229389
0.0937584 0.270611 0.229389
0.0957111 0.270611 0.229389
0.097664 0.270611 0.229389
0.0996169 0.270611 0.229389
0.101562 0.270611 0.229389
0.103515 0.270611 0.229389
0.105468 0.270611 0.230469
0.107421 0.269531 0.230469
0.109373 0.269531 0.230469
0.111326 0.269531 0.230469
0.113279 0.269531 0.230469
0.115232 0.269531 0.230469
0.117184 0.268452 0.231548
0.119137 0.268452 0.231548
0.12109 0.268452 0.231548
0.123042 0.268452 0.231548
0.124995 0.268452 0.231548
0.126948 0.268452 0.231548
0.1289 0.268452 0.231548
0.130853 0.268452 0.233295
0.132805 0.266705 0.233295
0.134758 0.266705 0.233295
0.13671 0.266705 0.233295
0.138663 0.266705 0.233295
0.140615 0.266705 0.233295
0.142568 0.266705 0.234375
0.14452 0.265625 0.234375
0.146473 0.265625 0.234375
0.148425 0.265625 0.234375
0.150377 0.265625 0.234375
0.15233 0.265625 0.235455
0.154282 0.264545 0.235455
0.156235 0.264545 0.235455
0.158187 0.264545 0.235455
0.160139 0.264545 0.235455
0.162092 0.264545 0.235455
0.164043 0.264545 0.237202
0.165995 0.262798 0.237202
0.167946 0.262798 0.237202
0.169898 0.262798 0.237202
0.17185 0.262798 0.237202
0.173801 0.262798 0.238281
0.175752 0.262798 0.238281
0.177704 0.261719 0.238281
0.179655 0.261719 0.238281
0.181607 0.261719 0.239361
0.183558 0.261719 0.239361
0.185509 0.260639 0.239361
0.187461 0.260639 0.239361
0.189412 0.260639 0.239361
0.191364 0.260639 0.241108
0.193315 0.260639 0.241108
0.195266 0.260639 0.241108
0.197218 0.258892 0.241108
0.199169 0.258892 0.241108
0.201112 0.258892 0.242188
0.203064 0.258892 0.242188
0.205016 0.258892 0.242188
0.206968 0.257812 0.242188
0.20892 0.257812 0.243267
0.210871 0.257812 0.243267
0.212823 0.257812 0.243267
0.214775 0.256733 0.243267
0.216727 0.256733 0.243267
0.218679 0.256733 0.245014
0.220631 0.256733 0.245014
0.222583 0.256733 0.245014
0.224535 0.256733 0.245014
0.226487 0.254986 0.245014
0.228439 0.254986 0.246094
0.230391 0.254986 0.246094
0.232342 0.254986 0.246094
0.234294 0.254986 0.247173
0.236246 0.253906 0.247173
0.238198 0.253906 0.247173
0.24015 0.253906 0.247173
0.242101 0.253906 0.247173
0.244053 0.252827 0.24892
0.246005 0.252827 0.24892
0.247957 0.252827 0.24892
0.249909 0.252827 0.24892
0.25186 0.252827 0.25
0.253811 0.252827 0.25
0.255763 0.25108 0.25
0.257715 0.25108 0.25108
0.259667 0.25108 0.25108
0.261619 0.25108 0.25108
0.26357 0.25108 0.25108
0.265522 0.25 0.25108
0.267474 0.25 0.252827
0.269426 0.25 0.252827
0.271377 0.25 0.252827
0.273328 0.24892 0.252827
0.275279 0.24892 0.253906
0.27723 0.24892 0.253906
0.279182 0.24892 0.253906
0.281134 0.24892 0.253906
0.283085 0.24892 0.254986
0.285036 0.247173 0.254986
0.286987 0.247173 0.254986
0.288938 0.247173 0.254986
0.29089 0.247173 0.256733
0.292842 0.247173 0.256733
0.294793 0.247173 0.256733
0.296745 0.246094 0.256733
0.298696 0.246094 0.256733
0.300644 0.246094 0.257812
0.302596 0.246094 0.257812
0.304548 0.245014 0.257812
0.3065 0.245014 0.258892
0.308451 0.245014 0.258892
0.310404 0.245014 0.258892
0.312355 0.245014 0.258892
0.314307 0.245014 0.260639
0.316259 0.243267 0.260639
0.318211 0.243267 0.260639
0.320163 0.243267 0.260639
0.322115 0.243267 0.260639
0.324067 0.243267 0.261719
0.326019 0.242188 0.261719
0.327971 0.242188 0.261719
0.329923 0.242188 0.262798
0.331875 0.242188 0.262798
0.333827 0.242188 0.262798
0.335779 0.241108 0.262798
0.337731 0.241108 0.262798
0.339682 0.241108 0.264545
0.341634 0.241108 0.264545
0.343586 0.241108 0.264545
0.345539 0.241108 0.264545
0.347491 0.239361 0.264545
0.349443 0.239361 0.265625
0.351395 0.239361 0.265625
0.353347 0.239361 0.265625
0.3553 0.239361 0.266705
0.357253 0.239361 0.266705
0.359204 0.238281 0.266705
0.361156 0.238281 0.266705
0.363109 0.238281 0.266705
0.365062 0.238281 0.266705
0.367014 0.238281 0.268452
0.368967 0.237202 0.268452
0.370919 0.237202 0.268452
0.372871 0.237202 0.268452
0.374823 0.237202 0.268452
0.376776 0.237202 0.269531
0.378729 0.237202 0.269531
0.380681 0.237202 0.269531
0.382633 0.235455 0.269531
0.384585 0.235455 0.270611
0.386539 0.235455 0.270611
0.388492 0.235455 0.270611
0.390444 0.235455 0.270611
0.392396 0.235455 0.270611
0.394348 0.235455 0.270611
0.396301 0.234375 0.270611
0.398254 0.234375 0.272358
0.400205 0.234375 0.272358
0.402157 0.234375 0.272358
0.404109 0.234375 0.272358
0.406062 0.234375 0.272358
0.408015 0.233295 0.272358
0.409968 0.233295 0.273438
0.411921 0.233295 0.273438
0.413873 0.233295 0.273438
0.415825 0.233295 0.273438
0.417778 0.233295 0.273438
0.419731 0.233295 0.273438
0.421684 0.233295 0.274517
0.423637 0.233295 0.274517
0.425589 0.231548 0.274517
0.427541 0.231548 0.274517
0.429494 0.231548 0.274517
0.431447 0.231548 0.274517
0.4334 0.231548 0.274517
0.435352 0.231548 0.274517
0.437304 0.231548 0.274517
0.439257 0.231548 0.276264
0.44121 0.231548 0.276264
0.443163 0.230469 0.276264
0.445116 0.230469 0.276264
0.447069 0.230469 0.276264
0.449021 0.230469 0.276264
0.450974 0.230469 0.276264
0.452928 0.230469 0.276264
0.454881 0.230469 0.276264
0.456834 0.230469 0.276264
0.458786 0.230469 0.276264
0.460739 0.229389 0.276264
0.462692 0.229389 0.277344
0.464646 0.229389 0.277344
0.466599 0.229389 0.277344
0.468551 0.229389 0.277344
0.470504 0.229389 0.277344
0.472457 0.229389 0.277344
0.47441 0.229389 0.277344
0.476363 0.229389 0.277344
0.478316 0.229389 0.277344
0.480269 0.229389 0.277344
0.482222 0.229389 0.277344
0.484175 0.229389 0.277344
0.486128 0.229389 0.277344
0.488082 0.229389 0.277344
0.490035 0.227642 0.277344
0.491988 0.227642 0.277344
0.493941 0.227642 0.277344
0.495894 0.227642 0.277344
0.497847 0.227642 0.277344
0.499801 0.227642 0.277344
0.501748 0.227642 0.277344
0.503701 0.227642 0.277344
0.505654 0.227642 0.277344
0.507607 0.227642 0.277344
0.50956 0.227642 0.277344
0.511514 0.227642 0.277344
0.513467 0.227642 0.277344
0.51542 0.227642 0.277344
0.517373 0.227642 0.277344
0.519326 0.227642 0.277344
0.52128 0.227642 0.277344
0.523233 0.227642 0.277344
0.525186 0.227642 0.277344
0.52714 0.227642 0.277344
0.529093 0.227642 0.277344
0.531046 0.227642 0.277344
0.532999 0.227642 0.277344
0.534952 0.227642 0.277344
0.536906 0.227642 0.277344
0.538859 0.227642 0.277344
0.540812 0.227642 0.277344
0.542765 0.227642 0.276264
0.544719 0.227642 0.276264
0.546672 0.227642 0.276264
0.548625 0.227642 0.276264
0.550578 0.227642 0.276264
0.552531 0.227642 0.276264
0.554484 0.227642 0.276264
0.556436 0.227642 0.276264
0.558389 0.227642 0.276264
0.560341 0.227642 0.276264
0.562294 0.227642 0.276264
0.564246 0.227642 0.276264
0.566198 0.227642 0.276264
0.56815 0.227642 0.274517
0.570103 0.227642 0.274517
0.572055 0.227642 0.274517
0.574007 0.227642 0.274517
0.575959 0.227642 0.274517
0.577911 0.227642 0.274517
0.579863 0.227642 0.274517
0.581816 0.227642 0.274517
0.583767 0.227642 0.274517
0.585719 0.227642 0.273438
0.587671 0.227642 0.273438
0.589623 0.227642 0.273438
0.591576 0.227642 0.273438
0.593527 0.227642 0.273438
0.595479 0.227642 0.273438
0.597431 0.227642 0.272358
0.599383 0.227642 0.272358
0.601327 0.227642 0.272358
0.603279 0.227642 0.272358
0.605231 0.227642 0.272358
0.607183 0.229389 0.272358
0.609135 0.229389 0.272358
0.611086 0.229389 0.272358
0.613039 0.229389 0.270611
0.614991 0.229389 0.270611
0.616942 0.229389 0.270611
0.618894 0.229389 0.270611
0.620845 0.229389 0.270611
0.622797 0.229389 0.270611
0.624749 0.229389 0.269531
0.626701 0.229389 0.269531
0.628652 0.229389 0.269531
0.630604 0.230469 0.269531
0.632556 0.230469 0.269531
0.634508 0.230469 0.268452
0.636459 0.230469 0.268452
0.638411 0.230469 0.268452
0.640362 0.230469 0.268452
0.642314 0.230469 0.268452
0.644265 0.230469 0.268452
0.646217 0.230469 0.266705
0.648169 0.231548 0.266705
0.650121 0.231548 0.266705
0.652072 0.231548 0.266705
0.654024 0.231548 0.266705
0.655976 0.231548 0.266705
0.657927 0.231548 0.265625
0.659879 0.231548 0.265625
0.661831 0.231548 0.265625
0.663782 0.231548 0.265625
0.665734 0.233295 0.264545
0.667686 0.233295 0.264545
0.669638 0.233295 0.264545
0.671589 0.233295 0.264545
0.67354 0.233295 0.264545
0.675491 0.233295 0.264545
0.677443 0.233295 0.262798
0.679394 0.233295 0.262798
0.681346 0.234375 0.262798
0.683297 0.234375 0.262798
0.685248 0.234375 0.262798
0.687199 0.234375 0.261719
0.68915 0.234375 0.261719
0.691101 0.235455 0.261719
0.693053 0.235455 0.261719
0.695004 0.235455 0.260639
0.696955 0.235455 0.260639
0.698906 0.235455 0.260639
0.700849 0.235455 0.260639
0.702801 0.235455 0.260639
0.704752 0.237202 0.258892
0.706704 0.237202 0.258892
0.708656 0.237202 0.258892
0.710607 0.237202 0.258892
0.712559 0.237202 0.258892
0.714511 0.237202 0.257812
0.716463 0.238281 0.257812
0.718415 0.238281 0.257812
0.720366 0.238281 0.257812
0.722317 0.238281 0.256733
0.724268 0.238281 0.256733
0.726219 0.239361 0.256733
0.728171 0.239361 0.256733
0.730122 0.239361 0.256733
0.732073 0.239361 0.256733
0.734024 0.239361 0.254986
0.735974 0.239361 0.254986
0.737925 0.241108 0.254986
0.739877 0.241108 0.254986
0.741828 0.241108 0.254986
0.743779 0.241108 0.253906
0.74573 0.241108 0.253906
0.747681 0.242188 0.253906
0.749633 0.242188 0.252827
0.751585 0.242188 0.252827
0.753537 0.243267 0.252827
0.755488 0.243267 0.252827
0.75744 0.243267 0.252827
0.759391 0.243267 0.252827
0.761343 0.243267 0.25108
0.763295 0.243267 0.25108
0.765247 0.245014 0.25108
0.767198 0.245014 0.25108
0.76915 0.245014 0.25108
0.771101 0.245014 0.25
0.773053 0.245014 0.25
0.775005 0.246094 0.25
0.776957 0.246094 0.25
0.778909 0.246094 0.24892
0.78086 0.247173 0.24892
0.782812 0.247173 0.24892
0.784764 0.247173 0.24892
0.786716 0.247173 0.24892
0.788667 0.247173 0.24892
0.790619 0.24892 0.247173
0.792569 0.24892 0.247173
0.794521 0.24892 0.247173
0.796473 0.24892 0.247173
0.798425 0.25 0.247173
0.800371 0.25 0.246094
0.802322 0.25 0.246094
0.804273 0.25 0.246094
0.806225 0.25108 0.246094
0.808178 0.25108 0.245014
0.81013 0.25108 0.245014
0.812081 0.25108 0.245014
0.814033 0.252827 0.245014
0.815984 0.252827 0.245014
0.817936 0.252827 0.245014
0.819888 0.252827 0.243267
0.82184 0.253906 0.243267
0.823792 0.253906 0.243267
0.825743 0.253906 0.243267
0.827695 0.253906 0.243267
0.829647 0.254986 0.243267
0.831599 0.254986 0.242188
0.833551 0.254986 0.242188
0.835503 0.254986 0.242188
0.837454 0.256733 0.242188
0.839405 0.256733 0.242188
0.841358 0.256733 0.241108
0.84331 0.256733 0.241108
0.845262 0.257812 0.241108
0.847214 0.257812 0.241108
0.849165 0.257812 0.241108
0.851116 0.257812 0.241108
0.853069 0.258892 0.241108
0.855021 0.258892 0.239361
0.856973 0.258892 0.239361
0.858925 0.258892 0.239361
0.860876 0.260639 0.239361
0.862828 0.260639 0.239361
0.86478 0.260639 0.239361
0.866732 0.260639 0.239361
0.868685 0.261719 0.238281
0.870636 0.261719 0.238281
0.872587 0.261719 0.238281
0.874539 0.261719 0.238281
0.876491 0.262798 0.238281
0.878443 0.262798 0.237202
0.880396 0.262798 0.237202
0.882347 0.262798 0.237202
0.884298 0.264545 0.237202
0.88625 0.264545 0.237202
0.888202 0.264545 0.237202
0.890155 0.264545 0.237202
0.892107 0.264545 0.237202
0.894058 0.265625 0.235455
0.896009 0.265625 0.235455
0.897962 0.265625 0.235455
0.899914 0.266705 0.235455
0.901865 0.266705 0.235455
0.903817 0.266705 0.235455
0.905768 0.266705 0.235455
0.90772 0.266705 0.235455
0.909672 0.268452 0.234375
0.911625 0.268452 0.234375
0.913577 0.268452 0.234375
0.915529 0.268452 0.234375
0.91748 0.268452 0.234375
0.919431 0.269531 0.234375
0.921384 0.269531 0.234375
0.923336 0.269531 0.233295
0.925289 0.269531 0.233295
0.92724 0.270611 0.233295
0.929191 0.270611 0.233295
0.931142 0.270611 0.233295
0.933095 0.270611 0.233295
0.935048 0.270611 0.233295
0.937 0.272358 0.233295
0.938952 0.272358 0.233295
0.940902 0.272358 0.233295
0.942854 0.272358 0.233295
0.944806 0.272358 0.233295
0.946759 0.272358 0.231548
0.948712 0.273438 0.231548
0.950663 0.273438 0.231548
0.952614 0.273438 0.231548
0.954566 0.273438 0.231548
0.956518 0.273438 0.231548
0.958471 0.274517 0.231548
0.960423 0.274517 0.231548
0.962375 0.274517 0.231548
0.964326 0.274517 0.231548
0.966278 0.274517 0.231548
0.968231 0.274517 0.231548
0.970183 0.274517 0.231548
0.972136 0.276264 0.230469
0.974087 0.276264 0.230469
0.976038 0.276264 0.230469
0.977991 0.276264 0.230469
0.979943 0.276264 0.230469
0.981896 0.276264 0.230469
0.983848 0.276264 0.230469
0.9858 0.277344 0.230469
0.987751 0.277344 0.230469
0.989704 0.277344 0.230469
0.991656 0.277344 0.230469
0.993609 0.277344 0.230469
0.995561 0.277344 0.230469
0.997513 0.277344 0.230469
0.999465 0.278423 0.229389
1.00142 0.278423 0.229389
1.00337 0.278423 0.229389
1.00532 0.278423 0.229389
1.00727 0.278423 0.229389
1.00923 0.278423 0.229389
1.01118 0.278423 0.229389
1.01313 0.278423 0.229389
1.01508 0.278423 0.229389
1.01704 0.278423 0.229389
1.01899 0.278423 0.229389
1.02094 0.278423 0.229389
1.02289 0.278423 0.229389
1.02485 0.278423 0.229389
1.0268 0.28017 0.229389
1.02875 0.28017 0.229389
1.03071 0.28017 0.229389
1.03266 0.28017 0.229389
1.03461 0.28017 0.229389
1.03656 0.28017 0.229389
1.03852 0.28017 0.229389
1.04047 0.28017 0.229389
1.04242 0.28017 0.229389
1.04438 0.28017 0.229389
1.04633 0.28017 0.229389
1.04828 0.28017 0.229389
1.05023 0.28017 0.229389
1.05219 0.28017 0.229389
1.05414 0.28017 0.229389
1.05609 0.28017 0.229389
1.05805 0.28017 0.229389
1.06 0.28017 0.229389
1.06195 0.28017 0.229389
1.0639 0.28017 0.229389
1.06586 0.28017 0.229389
1.06781 0.28017 0.229389
1.06976 0.28017 0.229389
1.07172 0.28017 0.229389
1.07367 0.28017 0.229389
1.07562 0.28017 0.229389
1.07757 0.28017 0.229389
1.07953 0.28017 0.229389
1.08148 0.28017 0.229389
1.08343 0.28017 0.229389
1.08538 0.28017 0.229389
1.08734 0.28017 0.229389
1.08929 0.278423 0.229389
1.09124 0.278423 0.229389
1.0932 0.278423 0.229389
1.09515 0.278423 0.230469
1.0971 0.278423 0.230469
1.09905 0.278423 0.230469
1.10101 0.278423 0.230469
1.10296 0.278423 0.230469
1.10491 0.278423 0.230469
1.10686 0.278423 0.230469
1.10882 0.278423 0.230469
1.11077 0.278423 0.230469
1.11272 0.277344 0.230469
1.11467 0.277344 0.230469
1.11663 0.277344 0.230469
1.11858 0.277344 0.230469
1.12053 0.277344 0.230469
1.12248 0.277344 0.230469
1.12444 0.276264 0.230469
1.12639 0.276264 0.231548
1.12834 0.276264 0.231548
1.13029 0.276264 0.231548
1.13225 0.276264 0.231548
1.1342 0.276264 0.231548
1.13615 0.276264 0.231548
1.1381 0.276264 0.231548
1.14006 0.274517 0.231548
1.14201 0.274517 0.231548
1.14396 0.274517 0.231548
1.14591 0.274517 0.231548
1.14787 0.274517 0.231548
1.14982 0.274517 0.231548
1.15177 0.273438 0.231548
1.15372 0.273438 0.233295
1.15567 0.273438 0.233295
1.15763 0.273438 0.233295
1.15958 0.273438 0.233295
1.16153 0.272358 0.233295
1.16348 0.272358 0.233295
1.16544 0.272358 0.233295
1.16739 0.272358 0.233295
1.16934 0.272358 0.233295
1.17129 0.270611 0.233295
1.17325 0.270611 0.234375
1.1752 0.270611 0.234375
1.17715 0.270611 0.234375
1.1791 0.270611 0.234375
1.18105 0.270611 0.234375
1.18301 0.269531 0.234375
1.18496 0.269531 0.234375
1.18691 0.269531 0.235455
1.18886 0.268452 0.235455
1.19081 0.268452 0.235455
1.19277 0.268452 0.235455
1.19472 0.268452 0.235455
1.19667 0.268452 0.235455
1.19862 0.266705 0.235455
1.20058 0.266705 0.235455
1.20253 0.266705 0.235455
1.20448 0.266705 0.237202
1.20643 0.266705 0.237202
1.20838 0.265625 0.237202
1.21034 0.265625 0.237202
1.21229 0.265625 0.237202
1.21424 0.264545 0.237202
1.21619 0.264545 0.237202
1.21814 0.264545 0.237202
1.2201 0.264545 0.238281
1.22205 0.262798 0.238281
1.224 0.262798 0.238281
1.22595 0.262798 0.238281
1.2279 0.262798 0.238281
1.22986 0.262798 0.239361
1.23181 0.261719 0.239361
1.23376 0.261719 0.239361
1.23571 0.261719 0.239361
1.23766 0.260639 0.239361
1.23962 0.260639 0.239361
1.24157 0.260639 0.239361
1.24352 0.260639 0.241108
1.24547 0.258892 0.241108
1.24743 0.258892 0.241108
1.24938 0.258892 0.241108
1.25133 0.258892 0.241108
1.25328 0.257812 0.241108
1.25523 0.257812 0.241108
1.25719 0.257812 0.242188
1.25914 0.256733 0.242188
1.26109 0.256733 0.242188
1.26304 0.256733 0.242188
1.26499 0.256733 0.243267
1.26695 0.256733 0.243267
1.2689 0.254986 0.243267
1.27085 0.254986 0.243267
1.2728 0.254986 0.243267
1.27475 0.254986 0.243267
1.2767 0.253906 0.243267
1.27866 0.253906 0.245014
1.28061 0.253906 0.245014
1.28256 0.252827 0.245014
1.28451 0.252827 0.245014
1.28646 0.252827 0.245014
1.28842 0.252827 0.246094
1.29037 0.25108 0.246094
1.29232 0.25108 0.246094
1.29427 0.25108 0.246094
1.29622 0.25108 0.247173
1.29818 0.25 0.247173
1.30013 0.25 0.247173
1.30208 0.25 0.247173
1.30403 0.24892 0.247173
1.30598 0.24892 0.247173
1.30793 0.24892 0.24892
1.30989 0.24892 0.24892
1.31184 0.24892 0.24892
1.31379 0.247173 0.24892
1.31574 0.247173 0.24892
1.31769 0.247173 0.24892
1.31965 0.247173 0.25
1.3216 0.246094 0.25
1.32355 0.246094 0.25
1.3255 0.246094 0.25
1.32745 0.246094 0.25108
1.32941 0.245014 0.25108
1.33136 0.245014 0.25108
1.33331 0.245014 0.25108
1.33526 0.245014 0.25108
1.33721 0.243267 0.252827
1.33917 0.243267 0.252827
1.34112 0.243267 0.252827
1.34307 0.243267 0.252827
1.34502 0.243267 0.252827
1.34697 0.242188 0.253906
1.34892 0.242188 0.253906
1.35088 0.242188 0.253906
1.35283 0.242188 0.253906
1.35478 0.241108 0.254986
1.35673 0.241108 0.254986
1.35869 0.241108 0.254986
1.36064 0.241108 0.254986
1.36259 0.241108 0.254986
1.36454 0.239361 0.254986
1.36649 0.239361 0.256733
1.36845 0.239361 0.256733
1.3704 0.239361 0.256733
1.37235 0.239361 0.256733
1.3743 0.238281 0.256733
1.37625 0.238281 0.257812
1.3782 0.238281 0.257812
1.38016 0.238281 0.257812
1.38211 0.237202 0.258892
1.38406 0.237202 0.258892
1.38601 0.237202 0.258892
1.38796 0.237202 0.258892
1.38991 0.237202 0.258892
1.39187 0.237202 0.258892
1.39382 0.235455 0.260639
1.39577 0.235455 0.260639
1.39772 0.235455 0.260639
1.39967 0.235455 0.260639
1.40162 0.235455 0.260639
1.40358 0.235455 0.261719
1.40553 0.234375 0.261719
1.40748 0.234375 0.261719
1.40943 0.234375 0.261719
1.41138 0.234375 0.262798
1.41333 0.234375 0.262798
1.41529 0.233295 0.262798
1.41724 0.233295 0.262798
1.41919 0.233295 0.262798
1.42114 0.233295 0.262798
1.42309 0.233295 0.264545
1.42504 0.233295 0.264545
1.427 0.233295 0.264545
1.42895 0.231548 0.264545
1.4309 0.231548 0.264545
1.43285 0.231548 0.265625
1.4348 0.231548 0.265625
1.43675 0.231548 0.265625
1.43871 0.231548 0.265625
1.44066 0.231548 0.266705
1.44261 0.231548 0.266705
1.44456 0.230469 0.266705
1.44651 0.230469 0.266705
1.44846 0.230469 0.266705
1.45042 0.230469 0.266705
1.45237 0.230469 0.266705
1.45432 0.230469 0.268452
1.45627 0.230469 0.268452
1.45823 0.229389 0.268452
1.46018 0.229389 0.268452
1.46213 0.229389 0.268452
1.46408 0.229389 0.268452
1.46604 0.229389 0.269531
1.46799 0.229389 0.269531
1.46994 0.229389 0.269531
1.47189 0.229389 0.269531
1.47384 0.229389 0.269531
1.4758 0.229389 0.270611
1.47775 0.229389 0.270611
1.4797 0.229389 0.270611
1.48165 0.227642 0.270611
1.4836 0.227642 0.270611
1.48556 0.227642 0.270611
1.48751 0.227642 0.270611
1.48946 0.227642 0.272358
1.49141 0.227642 0.272358
1.49336 0.227642 0.272358
1.49531 0.227642 0.272358
1.49727 0.227642 0.272358
1.49922 0.227642 0.272358
1.50117 0.227642 0.272358
1.50312 0.227642 0.272358
1.50508 0.227642 0.273438
1.50703 0.227642 0.273438
1.50898 0.227642 0.273438
1.51093 0.227642 0.273438
1.51289 0.227642 0.273438
1.51484 0.226562 0.273438
1.51679 0.226562 0.273438
1.51874 0.226562 0.274517
1.5207 0.226562 0.274517
1.52265 0.226562 0.274517
1.5246 0.226562 0.274517
1.52655 0.226562 0.274517
1.52851 0.226562 0.274517
1.53046 0.226562 0.274517
1.53241 0.226562 0.274517
1.53436 0.226562 0.274517
1.53632 0.226562 0.274517
1.53827 0.226562 0.274517
1.54022 0.226562 0.274517
1.54217 0.226562 0.276264
1.54413 0.226562 0.276264
1.54608 0.226562 0.276264
1.54803 0.226562 0.276264
1.54999 0.226562 0.276264
1.55194 0.226562 0.276264
1.55389 0.226562 0.276264
1.55584 0.226562 0.276264
1.5578 0.226562 0.276264
1.55975 0.226562 0.276264
1.5617 0.226562 0.276264
1.56365 0.226562 0.276264
1.56561 0.226562 0.276264
1.56756 0.226562 0.276264
1.56951 0.226562 0.276264
1.57146 0.226562 0.276264
1.57342 0.226562 0.276264
1.57537 0.226562 0.276264
1.57732 0.226562 0.276264
1.57927 0.226562 0.276264
1.58123 0.226562 0.276264
1.58318 0.226562 0.277344
1.58513 0.227642 0.277344
1.58709 0.227642 0.277344
1.58904 0.227642 0.277344
1.59099 0.227642 0.277344
1.59294 0.227642 0.277344
1.5949 0.227642 0.277344
1.59685 0.227642 0.277344
1.5988 0.227642 0.277344
1.60075 0.227642 0.276264
1.60271 0.227642 0.276264
1.60466 0.227642 0.276264
1.60661 0.227642 0.276264
1.60856 0.227642 0.276264
1.61052 0.227642 0.276264
1.61247 0.227642 0.276264
1.61442 0.227642 0.276264
1.61637 0.227642 0.276264
1.61833 0.227642 0.276264
1.62028 0.227642 0.276264
1.62223 0.229389 0.276264
1.62418 0.229389 0.276264
1.62614 0.229389 0.276264
1.62809 0.229389 0.276264
1.63004 0.229389 0.276264
1.63199 0.229389 0.276264
1.63394 0.229389 0.276264
1.6359 0.229389 0.276264
1.63785 0.229389 0.276264
1.6398 0.229389 0.276264
1.64175 0.229389 0.276264
1.6437 0.230469 0.276264
1.64566 0.230469 0.276264
1.64761 0.230469 0.274517
1.64956 0.230469 0.274517
1.65151 0.230469 0.274517
1.65347 0.230469 0.274517
1.65542 0.230469 0.274517
1.65737 0.231548 0.274517
1.65932 0.231548 0.274517
1.66127 0.231548 0.274517
1.66323 0.231548 0.274517
1.66518 0.231548 0.273438
1.66713 0.231548 0.273438
1.66908 0.231548 0.273438
1.67103 0.231548 0.273438
1.67299 0.231548 0.273438
1.67494 0.231548 0.273438
1.67689 0.233295 0.273438
1.67884 0.233295 0.272358
1.68079 0.233295 0.272358
1.68275 0.233295 0.272358
1.6847 0.233295 0.272358
1.68665 0.233295 0.272358
1.6886 0.233295 0.272358
1.69056 0.234375 0.272358
1.69251 0.234375 0.272358
1.69446 0.234375 0.270611
1.69641 0.234375 0.270611
1.69836 0.234375 0.270611
1.70032 0.234375 0.270611
1.70227 0.235455 0.270611
1.70422 0.235455 0.270611
1.70617 0.235455 0.270611
1.70812 0.235455 0.269531
1.71008 0.235455 0.269531
1.71203 0.235455 0.269531
1.71398 0.235455 0.269531
1.71593 0.237202 0.268452
1.71788 0.237202 0.268452
1.71984 0.237202 0.268452
1.72179 0.237202 0.268452
1.72374 0.237202 0.268452
1.72569 0.237202 0.268452
1.72764 0.238281 0.266705
1.7296 0.238281 0.266705
1.73155 0.238281 0.266705
1.7335 0.238281 0.266705
1.73545 0.238281 0.266705
1.7374 0.239361 0.266705
1.73935 0.239361 0.265625
1.74131 0.239361 0.265625
1.74326 0.239361 0.265625
1.74521 0.239361 0.265625
1.74716 0.239361 0.264545
1.74911 0.241108 0.264545
1.75107 0.241108 0.264545
1.75302 0.241108 0.264545
1.75497 0.241108 0.264545
1.75692 0.241108 0.262798
1.75887 0.241108 0.262798
1.76082 0.242188 0.262798
1.76278 0.242188 0.262798
1.76473 0.242188 0.262798
1.76668 0.242188 0.261719
1.76863 0.243267 0.261719
1.77058 0.243267 0.261719
1.77253 0.243267 0.260639
1.77449 0.243267 0.260639
1.77644 0.243267 0.260639
1.77839 0.243267 0.260639
1.78034 0.245014 0.260639
1.78229 0.245014 0.258892
1.78424 0.245014 0.258892
1.7862 0.245014 0.258892
1.78815 0.245014 0.258892
1.7901 0.246094 0.258892
1.79205 0.246094 0.257812
1.794 0.246094 0.257812
1.79595 0.246094 0.257812
1.79791 0.247173 0.256733
1.79986 0.247173 0.256733
1.80181 0.247173 0.256733
1.80376 0.247173 0.256733
1.80571 0.247173 0.256733
1.80766 0.247173 0.254986
1.80962 0.24892 0.254986
1.81157 0.24892 0.254986
1.81352 0.24892 0.254986
1.81547 0.24892 0.254986
1.81742 0.24892 0.253906
1.81938 0.25 0.253906
1.82133 0.25 0.253906
1.82328 0.25 0.252827
1.82523 0.25 0.252827
1.82718 0.25108 0.252827
1.82914 0.25108 0.252827
1.83109 0.25108 0.252827
1.83304 0.25108 0.25108
1.83499 0.25108 0.25108
1.83694 0.252827 0.25108
1.83889 0.252827 0.25108
1.84085 0.252827 0.25
1.8428 0.252827 0.25
1.84475 0.252827 0.25
1.8467 0.252827 0.25
1.84865 0.253906 0.24892
1.85061 0.253906 0.24892
1.85256 0.253906 0.24892
1.85451 0.254986 0.24892
1.85646 0.254986 0.24892
1.85841 0.254986 0.247173
1.86036 0.254986 0.247173
1.86232 0.254986 0.247173
1.86427 0.254986 0.247173
1.86622 0.256733 0.246094
1.86817 0.256733 0.246094
1.87012 0.256733 0.246094
1.87208 0.256733 0.246094
1.87403 0.256733 0.245014
1.87598 0.257812 0.245014
1.87793 0.257812 0.245014
1.87988 0.257812 0.245014
1.88184 0.257812 0.245014
1.88379 0.258892 0.243267
1.88574 0.258892 0.243267
1.88769 0.258892 0.243267
1.88964 0.258892 0.243267
1.8916 0.258892 0.243267
1.89355 0.258892 0.242188
1.8955 0.260639 0.242188
1.89745 0.260639 0.242188
1.8994 0.260639 0.241108
1.90136 0.260639 0.241108
1.90331 0.260639 0.241108
1.90526 0.260639 0.241108
1.90721 0.261719 0.241108
1.90916 0.261719 0.241108
1.91112 0.261719 0.239361
1.91307 0.261719 0.239361
1.91502 0.262798 0.239361
1.91697 0.262798 0.239361
1.91892 0.262798 0.239361
1.92088 0.262798 0.238281
1.92283 0.262798 0.238281
1.92478 0.262798 0.238281
1.92673 0.264545 0.238281
1.92868 0.264545 0.237202
1.93064 0.264545 0.237202
1.93259 0.264545 0.237202
1.93454 0.264545 0.237202
1.93649 0.264545 0.237202
1.93844 0.264545 0.237202
1.94039 0.265625 0.235455
1.94235 0.265625 0.235455
1.9443 0.265625 0.235455
1.94625 0.265625 0.235455
1.9482 0.265625 0.235455
1.95015 0.266705 0.235455
1.95211 0.266705 0.234375
1.95406 0.266705 0.234375
1.95601 0.266705 0.234375
1.95796 0.266705 0.234375
1.95991 0.266705 0.234375
1.96187 0.266705 0.233295
1.96382 0.268452 0.233295
1.96577 0.268452 0.233295
1.96772 0.268452 0.233295
1.96968 0.268452 0.233295
1.97163 0.268452 0.233295
1.97358 0.268452 0.233295
1.97553 0.268452 0.231548
1.97748 0.269531 0.231548
1.97944 0.269531 0.231548
1.98139 0.269531 0.231548
1.98334 0.269531 0.231548
1.98529 0.269531 0.231548
1.98724 0.269531 0.231548
1.9892 0.269531 0.231548
1.99115 0.270611 0.230469
1.9931 0.270611 0.230469
1.99505 0.270611 0.230469
1.99701 0.270611 0.230469
1.99896 0.270611 0.230469
2.00091 0.270611 0.230469
2.00286 0.270611 0.230469
2.00482 0.270611 0.229389
2.00677 0.270611 0.229389
2.00872 0.270611 0.229389
2.01067 0.272358 0.229389
2.01263 0.272358 0.229389
2.01458 0.272358 0.229389
2.01653 0.272358 0.229389
2.01848 0.272358 0.229389
2.02044 0.272358 0.229389
2.02239 0.272358 0.229389
2.02434 0.272358 0.227642
2.02629 0.272358 0.227642
2.02825 0.272358 0.227642
2.0302 0.272358 0.227642
2.03215 0.272358 0.227642
2.0341 0.273438 0.227642
2.03606 0.273438 0.227642
2.03801 0.273438 0.227642
2.03996 0.273438 0.227642
2.04192 0.273438 0.227642
2.04387 0.273438 0.227642
2.04582 0.273438 0.227642
2.04777 0.273438 0.226562
2.04973 0.273438 0.226562
2.05168 0.273438 0.226562
2.05363 0.273438 0.226562
2.05559 0.273438 0.226562
2.05754 0.273438 0.226562
2.05949 0.273438 0.226562
2.06144 0.273438 0.226562
2.0634 0.273438 0.226562
2.06535 0.274517 0.226562
2.0673 0.274517 0.226562
2.06926 0.274517 0.226562
2.07121 0.274517 0.226562
2.07316 0.274517 0.226562
2.07511 0.274517 0.226562
2.07707 0.274517 0.226562
2.07902 0.274517 0.226562
2.08097 0.274517 0.225483
2.08293 0.274517 0.225483
2.08488 0.274517 0.225483
2.08683 0.274517 0.225483
2.08879 0.274517 0.225483
2.09074 0.274517 0.225483
2.09269 0.274517 0.225483
2.09464 0.274517 0.225483
2.0966 0.274517 0.225483
2.09855 0.274517 0.225483
2.1005 0.274517 0.225483
2.10246 0.274517 0.225483
2.10441 0.274517 0.225483
2.10636 0.274517 0.225483
2.10832 0.274517 0.225483
2.11027 0.274517 0.225483
2.11222 0.274517 0.225483
2.11417 0.274517 0.225483
2.11613 0.274517 0.225483
2.11808 0.274517 0.225483
2.12003 0.274517 0.225483
2.12199 0.273438 0.225483
2.12394 0.273438 0.225483
2.12589 0.273438 0.225483
2.12784 0.273438 0.226562
2.1298 0.273438 0.226562
2.13175 0.273438 0.226562
2.1337 0.273438 0.226562
2.13565 0.273438 0.226562
2.13761 0.273438 0.226562
2.13956 0.273438 0.226562
2.14151 0.273438 0.226562
2.14346 0.273438 0.226562
2.14542 0.273438 0.226562
2.14737 0.273438 0.226562
2.14932 0.273438 0.226562
2.15128 0.272358 0.226562
2.15323 0.272358 0.226562
2.15518 0.272358 0.226562
2.15713 0.272358 0.226562
2.15909 0.272358 0.226562
2.16104 0.272358 0.226562
2.16299 0.272358 0.227642
2.16494 0.272358 0.227642
2.1669 0.272358 0.227642
2.16885 0.272358 0.227642
2.1708 0.272358 0.227642
2.17275 0.272358 0.227642
2.17471 0.272358 0.227642
2.17666 0.270611 0.227642
2.17861 0.270611 0.227642
2.18056 0.270611 0.227642
2.18252 0.270611 0.227642
2.18447 0.270611 0.227642
2.18642 0.270611 0.227642
2.18837 0.270611 0.229389
2.19033 0.270611 0.229389
2.19228 0.270611 0.229389
2.19423 0.270611 0.229389
2.19618 0.269531 0.229389
2.19814 0.269531 0.229389
2.20009 0.269531 0.229389
2.20204 0.269531 0.229389
2.20399 0.269531 0.229389
2.20594 0.269531 0.230469
2.2079 0.269531 0.230469
2.20985 0.268452 0.230469
2.2118 0.268452 0.230469
2.21376 0.268452 0.230469
2.21571 0.268452 0.230469
2.21766 0.268452 0.230469
2.21961 0.268452 0.231548
2.22156 0.268452 0.231548
2.22352 0.266705 0.231548
2.22547 0.266705 0.231548
2.22742 0.266705 0.231548