TITLE=FVSolution
VARIABLES=X lambda badcell
ZONE T=TA
0.0025 0.000123268441588934 0
0.0075 0.000123312199865831 0
0.0125 0.000123367998972087 0
0.0175 0.000123344984290458 0
0.0225   0.0001234578506162 0
0.0275 0.000123172716844652 0
0.0325 0.000123315657888468 0
0.0375 0.000123428528523025 0
0.0425 0.000123428506985376 0
0.0475 0.000123269481956607 0
0.0525 0.000123196303689899 0
0.0575  0.00012339951938342 0
0.0625 0.000123517293437733 0
0.0675 0.000123264960293419 0
0.0725 0.000123215047328861 0
0.0775 0.000123398228433543 0
0.0825 0.000123292479721725 0
0.0875 0.000123503428287032 0
0.0925 0.000123324276895914 0
0.0975 0.000123209832766188 0
0.1025 0.000123220525946812 0
0.1075 0.000123539757988719 0
0.1125 0.000123443874363068 0
0.1175 0.000123259887806256 0
0.1225 0.000123240099847193 0
0.1275 0.000123105316829795 0
0.1325 0.000123717835532581 0
0.1375 0.000123424517577864 0
0.1425 0.000123248886287667 0
0.1475 0.000123080110913513 0
0.1525   0.0001233281799617 0
0.1575 0.000123452237006091 0
0.1625 0.000123603932764543 0
0.1675 0.000123462750801572 0
0.1725 0.000122937990676865 0
0.1775 0.000122960610144281 0
0.1825 0.000123554841350981 0
0.1875 0.000123803615467884 0
0.1925 0.000123787527872538 0
0.1975 0.000122836303237591 0
0.2025 0.000122741532241061 0
0.2075 0.000122915378028238 0
0.2125  0.00012361754496482 0
0.2175 0.000124860836986615 0
0.2225 0.000124099782627581 0
0.2275 0.000122619998778781 0
0.2325 0.000120533159551049 0
0.2375 0.000120643952919767 0
0.2425 0.000126211623599043 0
0.2475 0.000139252733082643 0
0.2525 7.27898702764561e-05 0
0.2575 0.000133332843144518 0
0.2625   0.0001240860207189 0
0.2675 0.000123245812509676 0
0.2725 0.000123329200235296 0
0.2775 0.000122992175792287 0
0.2825 0.000122963501414162 0
0.2875 0.000123682733846871 0
0.2925 0.000123479566406569 0
0.2975   0.0001230512263165 0
0.3025 0.000123459931577893 0
0.3075 0.000123381190898631 0
0.3125 0.000123309862712678 0
0.3175 0.000123364147979607 0
0.3225 0.000123274874727777 0
0.3275 0.000123299809456142 0
0.3325 0.000123570442561492 0
0.3375 0.000123115303458725 0
0.3425 0.000123375520649715 0
0.3475 0.000123363138047558 0
0.3525 0.000123433228565513 0
0.3575  0.00012322090498267 0
0.3625 0.000123356594775307 0
0.3675  0.00012328385384028 0
0.3725 0.000123583498819908 0
0.3775 0.000123085227433641 0
0.3825 0.000123367210652581 0
0.3875 0.000123436520170888 0
0.3925 0.000123352782534148 0
0.3975 0.000123255092228169 0
0.4025 0.000123324604639159 0
0.4075 0.000123412771670871 0
0.4125 0.000123333138078538 0
0.4175 0.000123340477656177 0
0.4225 0.000123261587655379 0
0.4275 0.000123390444967499 0
0.4325 0.000123388630958805 0
0.4375 0.000123313498639979 0
0.4425 0.000123297936982955 0
0.4475  0.00012330263445044 0
0.4525 0.000123455703208634 0
0.4575 0.000123356427769315 0
0.4625 0.000123177991537826 0
0.4675 0.000123410587663441 0
0.4725 0.000123396802642446 0
0.4775   0.0001233345291453 0
0.4825 0.000123316439194589 0
0.4875  0.00012323162713991 0
0.4925 0.000123473553509868 0
0.4975 0.000123373342544648 0
0.5025 0.000123240562935002 0
0.5075 0.000123352200575528 0
0.5125 0.000123316911534644 0
0.5175 0.000123404675103195 0
0.5225 0.000123388568770807 0
0.5275 0.000123252939595492 0
0.5325 0.000123229510885169 0
0.5375 0.000123508091766078 0
0.5425 0.000123365810438115 0
0.5475 0.000123316594559173 0
0.5525 0.000123157794602945 0
0.5575 0.000123428630116432 0
0.5625 0.000123507676419747 0
0.5675 0.000123250924788139 0
0.5725 0.000123239244844602 0
0.5775 0.000123381571658508 0
0.5825 0.000123302663599064 0
0.5875 0.000123483579746552 0
0.5925 0.000123357810835638 0
0.5975 0.000123178207326152 0
0.6025 0.000123240758153162 0
0.6075 0.000123520161020213 0
0.6125 0.000123464949344641 0
0.6175 0.000123269235829914 0
0.6225 0.000123170349538249 0
0.6275 0.000123209954516013 0
0.6325 0.000123638091782294 0
0.6375 0.000123462055807999 0
0.6425 0.000123215717738439 0
0.6475 0.000123127658527939 0
0.6525 0.000123298424625984 0
0.6575 0.000123450249629062 0
0.6625  0.00012359617987331 0
0.6675 0.000123503035588115 0
0.6725 0.000122899489661619 0
0.6775 0.000122994963935657 0
0.6825 0.000123462424779969 0
0.6875 0.000123950520530646 0
0.6925  0.00012369979073058 0
0.6975 0.000122816651073863 0
0.7025 0.000122786201697864 0
0.7075  0.00012286099764255 0
0.7125 0.000123778099914294 0
0.7175 0.000124616140429489 0
0.7225 0.000124300575838832 0
0.7275 0.000122424017781819 0
0.7325 0.000120885786987439 0
0.7375 0.000120057930838519 0
0.7425 0.000127034840461506 0
0.7475 0.000138421012817902 0
0.7525 7.97390838748292e-05 0
0.7575 0.000133102399321232 0
0.7625 0.000123956485060989 0
0.7675 0.000123363936235551 0
0.7725  0.00012329822001237 0
0.7775 0.000122976496137048 0
0.7825 0.000122988447165473 0
0.7875 0.000123675627039586 0
0.7925 0.000123462300981765 0
0.7975 0.000123079769202253 0
0.8025 0.000123440395660649 0
0.8075 0.000123376180883945 0
0.8125 0.000123340279056691 0
0.8175 0.000123323863028038 0
0.8225 0.000123300844023362 0
0.8275 0.000123306700566437 0
0.8325 0.000123532036141495 0
0.8375 0.000123161009185277 0
0.8425 0.000123355953873397 0
0.8475 0.000123336963480323 0
0.8525 0.000123494716499094 0
0.8575 0.000123159261505034 0
0.8625 0.000123382764103345 0
0.8675 0.000123303742341515 0
0.8725 0.000123539386995118 0
0.8775 0.000123116517123165 0
0.8825  0.00012337396752263 0
0.8875 0.000123394522814771 0
0.8925 0.000123402048927612 0
0.8975 0.000123231914065746 0
0.9025 0.000123306583703802 0
0.9075 0.000123458626819613 0
0.9125   0.0001232915155101 0
0.9175 0.000123351026729002 0
0.9225  0.00012328301289983 0
0.9275 0.000123361274340314 0
0.9325 0.000123398379416696 0
0.9375 0.000123329614936811 0
0.9425  0.00012327472516893 0
0.9475 0.000123308295218602 0
0.9525  0.00012347307128065 0
0.9575 0.000123333916091738 0
0.9625 0.000123183886244294 0
0.9675 0.000123425132590291 0
0.9725 0.000123379190537119 0
0.9775  0.00012333513044021 0
0.9825 0.000123336432257449 0
0.9875 0.000123203118605652 0
0.9925  0.00012349874838786 0
0.9975 0.000123351300270075 0
