TITLE=FVSolution
VARIABLES=X lambda badcell
ZONE T=TA
0.0025 0.000123268441739362 0
0.0075 0.000123312200012351 0
0.0125 0.000123367999113873 0
0.0175 0.000123344984426759 0
0.0225 0.000123457850746351 0
0.0275 0.000123172716968082 0
0.0325 0.000123315658004709 0
0.0375 0.000123428528631714 0
0.0425 0.000123428507086256 0
0.0475 0.000123269482049529 0
0.0525 0.000123196303774821 0
0.0575   0.0001233995194604 0
0.0625 0.000123517293506924 0
0.0675  0.00012326496035506 0
0.0725 0.000123215047383269 0
0.0775 0.000123398228481102 0
0.0825 0.000123292479762875 0
0.0875 0.000123503428322255 0
0.0925 0.000123324276925721 0
0.0975 0.000123209832791109 0
0.1025 0.000123220525967381 0
0.1075 0.000123539758005464 0
0.1125 0.000123443874376502 0
0.1175 0.000123259887816864 0
0.1225 0.000123240099855427 0
0.1275  0.00012310531683607 0
0.1325 0.000123717835537268 0
0.1375 0.000123424517581289 0
0.1425  0.00012324888629011 0
0.1475  0.00012308011091521 0
0.1525 0.000123328179962845 0
0.1575 0.000123452237006837 0
0.1625 0.000123603932765012 0
0.1675 0.000123462750801855 0
0.1725 0.000122937990677027 0
0.1775 0.000122960610144369 0
0.1825 0.000123554841351025 0
0.1875 0.000123803615467905 0
0.1925 0.000123787527872546 0
0.1975 0.000122836303237594 0
0.2025 0.000122741532241062 0
0.2075 0.000122915378028239 0
0.2125  0.00012361754496482 0
0.2175 0.000124860836986615 0
0.2225 0.000124099782627581 0
0.2275 0.000122619998778781 0
0.2325 0.000120533159551049 0
0.2375 0.000120643952919767 0
0.2425 0.000126211623599043 0
0.2475 0.000139252733082643 0
0.2525 7.27898702764561e-05 0
0.2575 0.000133332843144518 0
0.2625   0.0001240860207189 0
0.2675 0.000123245812509676 0
0.2725 0.000123329200235296 0
0.2775 0.000122992175792287 0
0.2825 0.000122963501414162 0
0.2875 0.000123682733846871 0
0.2925  0.00012347956640657 0
0.2975 0.000123051226316501 0
0.3025 0.000123459931577897 0
0.3075  0.00012338119089864 0
0.3125   0.0001233098627127 0
0.3175 0.000123364147979653 0
0.3225 0.000123274874727868 0
0.3275 0.000123299809456309 0
0.3325 0.000123570442561782 0
0.3375 0.000123115303459205 0
0.3425 0.000123375520650478 0
0.3475 0.000123363138048726 0
0.3525 0.000123433228567243 0
0.3575 0.000123220904985157 0
0.3625 0.000123356594778788 0
0.3675 0.000123283853845038 0
0.3725 0.000123583498826272 0
0.3775 0.000123085227441984 0
0.3825 0.000123367210663319 0
0.3875 0.000123436520184476 0
0.3925 0.000123352782551073 0
0.3975 0.000123255092248943 0
0.4025 0.000123324604664312 0
0.4075 0.000123412771700937 0
0.4125 0.000123333138114046 0
0.4175 0.000123340477697637 0
0.4225 0.000123261587703271 0
0.4275  0.00012339044502226 0
0.4325 0.000123388631020816 0
0.4375 0.000123313498709554 0
0.4425 0.000123297937060329 0
0.4475 0.000123302634535763 0
0.4525 0.000123455703301956 0
0.4575  0.00012335642787059 0
0.4625 0.000123177991646899 0
0.4675 0.000123410587780051 0
0.4725 0.000123396802766225 0
0.4775 0.000123334529275772 0
0.4825 0.000123316439331181 0
0.4875 0.000123231627281952 0
0.4925 0.000123473553656604 0
0.4975 0.000123373342695248 0
0.5025  0.00012324056308543 0
0.5075 0.000123352200722049 0
0.5125  0.00012331691167643 0
0.5175 0.000123404675239496 0
0.5225 0.000123388568900958 0
0.5275 0.000123252939718922 0
0.5325 0.000123229511001409 0
0.5375 0.000123508091874767 0
0.5425 0.000123365810538995 0
0.5475 0.000123316594652096 0
0.5525 0.000123157794687866 0
0.5575 0.000123428630193412 0
0.5625 0.000123507676488938 0
0.5675  0.00012325092484978 0
0.5725  0.00012323924489901 0
0.5775 0.000123381571706068 0
0.5825 0.000123302663640215 0
0.5875 0.000123483579781776 0
0.5925 0.000123357810865446 0
0.5975 0.000123178207351073 0
0.6025 0.000123240758173731 0
0.6075 0.000123520161036959 0
0.6125 0.000123464949358074 0
0.6175 0.000123269235840522 0
0.6225 0.000123170349546483 0
0.6275 0.000123209954522288 0
0.6325  0.00012363809178698 0
0.6375 0.000123462055811423 0
0.6425 0.000123215717740882 0
0.6475 0.000123127658529636 0
0.6525 0.000123298424627129 0
0.6575 0.000123450249629809 0
0.6625 0.000123596179873779 0
0.6675 0.000123503035588397 0
0.6725 0.000122899489661781 0
0.6775 0.000122994963935745 0
0.6825 0.000123462424780013 0
0.6875 0.000123950520530667 0
0.6925 0.000123699790730589 0
0.6975 0.000122816651073866 0
0.7025 0.000122786201697865 0
0.7075  0.00012286099764255 0
0.7125 0.000123778099914294 0
0.7175 0.000124616140429489 0
0.7225 0.000124300575838832 0
0.7275 0.000122424017781819 0
0.7325 0.000120885786987439 0
0.7375 0.000120057930838519 0
0.7425 0.000127034840461506 0
0.7475 0.000138421012817902 0
0.7525 7.97390838748292e-05 0
0.7575 0.000133102399321232 0
0.7625 0.000123956485060989 0
0.7675 0.000123363936235551 0
0.7725  0.00012329822001237 0
0.7775 0.000122976496137048 0
0.7825 0.000122988447165473 0
0.7875 0.000123675627039586 0
0.7925 0.000123462300981765 0
0.7975 0.000123079769202254 0
0.8025 0.000123440395660652 0
0.8075 0.000123376180883954 0
0.8125 0.000123340279056713 0
0.8175 0.000123323863028084 0
0.8225 0.000123300844023452 0
0.8275 0.000123306700566604 0
0.8325 0.000123532036141785 0
0.8375 0.000123161009185758 0
0.8425 0.000123355953874161 0
0.8475 0.000123336963481491 0
0.8525 0.000123494716500824 0
0.8575  0.00012315926150752 0
0.8625 0.000123382764106826 0
0.8675 0.000123303742346273 0
0.8725 0.000123539387001482 0
0.8775 0.000123116517131508 0
0.8825 0.000123373967533367 0
0.8875 0.000123394522828358 0
0.8925 0.000123402048944537 0
0.8975  0.00012323191408652 0
0.9025 0.000123306583728955 0
0.9075 0.000123458626849678 0
0.9125 0.000123291515545608 0
0.9175 0.000123351026770462 0
0.9225 0.000123283012947723 0
0.9275 0.000123361274395075 0
0.9325 0.000123398379478706 0
0.9375 0.000123329615006386 0
0.9425 0.000123274725246305 0
0.9475 0.000123308295303924 0
0.9525 0.000123473071373972 0
0.9575 0.000123333916193012 0
0.9625 0.000123183886353368 0
0.9675 0.000123425132706901 0
0.9725 0.000123379190660898 0
0.9775 0.000123335130570682 0
0.9825 0.000123336432394041 0
0.9875 0.000123203118747694 0
0.9925 0.000123498748534596 0
0.9975 0.000123351300420675 0
