TITLE=FVSolution
VARIABLES=X RHO1Z1 RHO2Z2 RHOU Z1 RHO1 RHO2 RHO U PRE theta
ZONE T=TA
0.0025    0.609424002626139    0.492146664477995     1.10157066710414    0.507853335521886     1.19999999999976    0.999999999999757     1.10157066710413     1.00000000000001 -2.43138842392909e-13 -30727
0.0075    0.628262707533088    0.476447743722204      1.1047104512553     0.52355225627768     1.19999999999976    0.999999999999756     1.10471045125529                    1 -2.44249065417534e-13 1
0.0125    0.647073520564136     0.46077206619633     1.10784558676047    0.539227933803557     1.19999999999975    0.999999999999755     1.10784558676047     1.00000000000001 -2.4535928844216e-13 1
0.0175    0.665837877715721    0.445135101903343     1.11097297961907    0.554864898096548     1.19999999999975    0.999999999999754     1.11097297961906     1.00000000000001 -2.4580337765201e-13 1
0.0225    0.684537260828764    0.429552282642474     1.11408954347125     0.57044771735742     1.19999999999975    0.999999999999754     1.11408954347124     1.00000000000001 -2.46025422256935e-13 1
0.0275     0.70315321586433    0.414038986779502     1.11719220264384    0.585961013220396     1.19999999999975    0.999999999999753     1.11719220264383     1.00000000000001 -2.47357689886485e-13 1
0.0325    0.721667371133427    0.398610524055253     1.12027789518869    0.601389475944647     1.19999999999975    0.999999999999751     1.12027789518868                    1 -2.49134046725885e-13 1
0.0375    0.740061455403551    0.383282120496815     1.12334357590037    0.616717879503089     1.19999999999975    0.999999999999748     1.12334357590037                    1 -2.52020626589911e-13 1
0.0425    0.758317315925964    0.368068903394803     1.12638621932077    0.631931096605103     1.19999999999975    0.999999999999746     1.12638621932077                    1 -2.54019028034236e-13 1
0.0475    0.776416936362944    0.352985886363988     1.12940282272693    0.647014113635923     1.19999999999975    0.999999999999747     1.12940282272693                    1 -2.52908805009611e-13 1
0.0525    0.794342454580901    0.338047954515694      1.1323904090966    0.661952045484222     1.19999999999975    0.999999999999751      1.1323904090966                    1 -2.4891200212096e-13 1
0.0575    0.812076180268711    0.323269849775855     1.13534603004457    0.676730150224065     1.19999999999975    0.999999999999753     1.13534603004457                    1 -2.4713564528156e-13 1
0.0625    0.829600612375347    0.308666156353659     1.13826676872901    0.691333843646265     1.19999999999975    0.999999999999752     1.13826676872901                    1 -2.47801779096335e-13 1
0.0675    0.846898456388859    0.294251286342398     1.14114974273126    0.705748713657529     1.19999999999975    0.999999999999751     1.14114974273126                    1 -2.48689957516035e-13 1
0.0725    0.863952641428907    0.280039465475692      1.1439921069046    0.719960534524238     1.19999999999975    0.999999999999751      1.1439921069046                    1 -2.4846791291111e-13 1
0.0775    0.880746337084227    0.266044719096261     1.14679105618049    0.733955280903673     1.19999999999975    0.999999999999753     1.14679105618049                    1 -2.46469511466785e-13 1
0.0825    0.897262970004982    0.252280858328968     1.14954382833395    0.747719141670971     1.19999999999976    0.999999999999756     1.14954382833395                    1 -2.44249065417534e-13 1
0.0875    0.913486240266364    0.238761466444483     1.15224770671085    0.761238533555458     1.19999999999976    0.999999999999755     1.15224770671085                    1 -2.44471110022459e-13 1
0.0925    0.929400137448313    0.225499885459525     1.15490002290784    0.774500114540419     1.19999999999975    0.999999999999754     1.15490002290784                    1 -2.4580337765201e-13 1
0.0975    0.944988956456681    0.212509202952551     1.15749815940924    0.787490797047396     1.19999999999975    0.999999999999753     1.15749815940923                    1 -2.47357689886485e-13 1
0.1025    0.960237313020985    0.199802239148963     1.16003955216995    0.800197760850987     1.19999999999975    0.999999999999751     1.16003955216995                    1 -2.49134046725885e-13 1
0.1075    0.975130158861096    0.187391534282203      1.1625216931433     0.81260846571775     1.19999999999975    0.999999999999749      1.1625216931433                    1 -2.50466314355435e-13 1
0.1125    0.989652796523062    0.175289336230566     1.16494213275363     0.82471066376939     1.19999999999975     0.99999999999975     1.16494213275363                    1 -2.5068835896036e-13 1
0.1175     1.00379089390678    0.163507588410802     1.16729848231758    0.836492411589157     1.19999999999975    0.999999999999749     1.16729848231758                    1 -2.50910403565285e-13 1
0.1225     1.01753049842262    0.152057917980931     1.16958841640356    0.847942082019031     1.19999999999975     0.99999999999975     1.16958841640356                    1 -2.5024426975051e-13 1
0.1275      1.0308580507523    0.140951624372866     1.17180967512517    0.859048375627099     1.19999999999975    0.999999999999751     1.17180967512517    0.999999999999999 -2.48689957516035e-13 1
0.1325     1.04376039821987    0.130199668149896     1.17396006636977    0.869800331850072     1.19999999999975    0.999999999999754     1.17396006636977    0.999999999999998 -2.4624746686186e-13 1
0.1375     1.05622480774633    0.119812660211182     1.17603746795751    0.880187339788788     1.19999999999976    0.999999999999756     1.17603746795751    0.999999999999999 -2.44249065417534e-13 1
0.1425     1.06823897845356    0.109800851288491     1.17803982974205    0.890199148711482     1.19999999999975    0.999999999999755     1.17803982974205                    1 -2.45137243837235e-13 1
0.1475     1.07979105381302     0.10017412182227      1.1799651756353    0.899825878177706     1.19999999999975    0.999999999999753     1.17996517563529                    1 -2.47357689886485e-13 1
0.1525     1.09086963333857   0.0909419722176445     1.18181160555623    0.909058027782333     1.19999999999975     0.99999999999975     1.18181160555622     1.00000000000001 -2.49578135935735e-13 1
0.1575     1.10146378381356     0.08211351348849     1.18357729730206     0.91788648651149     1.19999999999975     0.99999999999975     1.18357729730205     1.00000000000001 -2.50466314355435e-13 1
0.1625     1.11156305007909   0.0736974582672145     1.18526050834631    0.926302541732767     1.19999999999975     0.99999999999975      1.1852605083463     1.00000000000001 -2.50022225145585e-13 1
0.1675     1.12115746536114   0.0657021121988354     1.18685957755999    0.934297887801148     1.19999999999975    0.999999999999749     1.18685957755998     1.00000000000001 -2.50022225145585e-13 1
0.1725     1.13023756112753   0.0581353657268502     1.18837292685438    0.941864634273135     1.19999999999975    0.999999999999749     1.18837292685438     1.00000000000001 -2.4935609133081e-13 1
0.1775     1.13879437644228   0.0510046862978893     1.18979906274018    0.948995313702098     1.19999999999975    0.999999999999751     1.18979906274017                    1 -2.48689957516035e-13 1
0.1825     1.14681946678091   0.0443171110157021     1.19113657779661    0.955682888984287     1.19999999999975    0.999999999999752     1.19113657779661                    1 -2.4846791291111e-13 1
0.1875     1.15430491233778   0.0380792397183031     1.19238415205609    0.961920760281687     1.19999999999975    0.999999999999749     1.19238415205609                    1 -2.50466314355435e-13 1
0.1925     1.16124332585492    0.032297228454028     1.19354055430895    0.967702771545964     1.19999999999975    0.999999999999754     1.19354055430894                    1 -2.48689957516035e-13 1
0.1975     1.16762785993942   0.0269767833836107     1.19460464332303    0.973023216616383     1.19999999999975     0.99999999999975     1.19460464332303     1.00000000000001 -2.4891200212096e-13 1
0.2025     1.17345221384641   0.0221231551277822      1.1955753689742    0.977876844872212     1.19999999999975    0.999999999999751     1.19557536897419     1.00000000000001 -2.5068835896036e-13 1
0.2075     1.17871063967257   0.0177411336059776     1.19645177327857    0.982258866394018     1.19999999999975    0.999999999999748     1.19645177327855     1.00000000000001 -2.5157653738006e-13 1
0.2125     1.18339794800098   0.0138350433323037      1.1972329913333    0.986164956667693     1.19999999999975     0.99999999999975     1.19723299133329     1.00000000000001 -2.5113244817021e-13 1
0.2175     1.18750951300443   0.0104087391627624     1.19791825216721    0.989591260837235     1.19999999999975    0.999999999999739      1.1979182521672     1.00000000000001 -2.50910403565285e-13 1
0.2225     1.19104127701975  0.00746560248332777     1.19850687950309     0.99253439751667     1.19999999999975    0.999999999999753     1.19850687950308     1.00000000000001 -2.53796983429311e-13 1
0.2275     1.19398975460127  0.00500853783205741     1.19899829243334    0.994991462167941     1.19999999999974    0.999999999999725     1.19899829243333     1.00000000000001 -2.57571741713036e-13 1
0.2325     1.19635203598266   0.0030399700142312      1.1993920059969    0.996960029985768     1.19999999999974    0.999999999999752     1.19939200599689     1.00000000000001 -2.59126053947512e-13 1
0.2375     1.19812578993288  0.00156184172238654     1.19968763165527    0.998438158277613     1.19999999999974    0.999999999999749     1.19968763165527                    1 -2.56239474083486e-13 1
0.2425     1.19930926600518 0.000575611662136445     1.19988487766732    0.999424388337863     1.19999999999975    0.999999999999733     1.19988487766732                    1 -2.53352894219461e-13 1
0.2475     1.19990129622627 8.22531445703061e-05     1.19998354937084     0.99991774685543     1.19999999999975    0.999999999999681     1.19998354937084                    1 -2.48689957516035e-13 1
0.2525     1.19990129627219 8.22531062991779e-05      1.1999835493785    0.999917746893701     1.19999999999975     1.00000000000012     1.19998354937849                    1 -2.46025422256935e-13 1
0.2575     1.19930926612139 0.000575611565303141      1.1998848776867    0.999424388434697     1.19999999999976    0.999999999999759      1.1998848776867                    1 -2.41584530158434e-13 1
0.2625     1.19812579005808  0.00156184161806424     1.19968763167615    0.998438158381935     1.19999999999976    0.999999999999763     1.19968763167615                    1 -2.39364084109184e-13 1
0.2675     1.19635203605126  0.00303996995708206     1.19939200600834    0.996960030042917     1.19999999999976    0.999999999999727     1.19939200600835                    1 -2.38031816479634e-13 1
0.2725     1.19398975459261  0.00500853783928925      1.1989982924319     0.99499146216071     1.19999999999976    0.999999999999761      1.1989982924319    0.999999999999999 -2.38697950294409e-13 1
0.2775     1.19104127697066  0.00746560252425277     1.19850687949491    0.992534397475745     1.19999999999976    0.999999999999762     1.19850687949491    0.999999999999997 -2.38475905689484e-13 1
0.2825     1.18750951297016   0.0104087391913333     1.19791825216149    0.989591260808664     1.19999999999976    0.999999999999763     1.19791825216149    0.999999999999996 -2.39364084109184e-13 1
0.2875     1.18339794800842    0.013835043326115     1.19723299133453    0.986164956673882     1.19999999999976    0.999999999999759     1.19723299133454    0.999999999999997 -2.41140440948584e-13 1
0.2925     1.17871063970645   0.0177411335777556      1.1964517732842     0.98225886642224     1.19999999999976    0.999999999999756      1.1964517732842    0.999999999999998 -2.44249065417534e-13 1
0.2975     1.17345221387372   0.0221231551050235     1.19557536897875    0.977876844894971     1.19999999999975    0.999999999999754     1.19557536897875                    1 -2.4713564528156e-13 1
0.3025     1.16762785993739   0.0269767833852996      1.1946046433227    0.973023216614694     1.19999999999975    0.999999999999752     1.19460464332269                    1 -2.4802382370126e-13 1
0.3075     1.16124332583296   0.0322972284723193     1.19354055430529    0.967702771527673     1.19999999999975    0.999999999999748     1.19354055430528     1.00000000000001 -2.5024426975051e-13 1
0.3125     1.15430491232657   0.0380792397276502     1.19238415205423     0.96192076027234     1.19999999999975    0.999999999999749     1.19238415205422     1.00000000000001 -2.5113244817021e-13 1
0.3175     1.14681946679453   0.0443171110043492     1.19113657779889     0.95568288899564     1.19999999999975    0.999999999999749     1.19113657779888     1.00000000000001 -2.5068835896036e-13 1
0.3225     1.13879437646752   0.0510046862768552     1.18979906274439    0.948995313723132     1.19999999999975    0.999999999999752     1.18979906274438     1.00000000000001 -2.4891200212096e-13 1
0.3275     1.13023756113878   0.0581353657174737     1.18837292685626    0.941864634282512     1.19999999999975    0.999999999999754     1.18837292685626                    1 -2.46913600676635e-13 1
0.3325     1.12115746535217   0.0657021122063122     1.18685957755849    0.934297887793672     1.19999999999975    0.999999999999751     1.18685957755849                    1 -2.4757973449141e-13 1
0.3375     1.11156305007162   0.0736974582734425     1.18526050834506    0.926302541726539     1.19999999999975    0.999999999999751     1.18526050834506                    1 -2.4891200212096e-13 1
0.3425     1.10146378382081   0.0821135134824458     1.18357729730326    0.917886486517534     1.19999999999975     0.99999999999975     1.18357729730326                    1 -2.5068835896036e-13 1
0.3475      1.0908696333557   0.0909419722033674     1.18181160555907     0.90905802779661     1.19999999999975    0.999999999999749     1.18181160555907                    1 -2.51354492775135e-13 1
0.3525     1.07979105382602    0.100174121811436     1.17996517563746    0.899825878188539     1.19999999999975    0.999999999999748     1.17996517563746                    1 -2.51798581984986e-13 1
0.3575      1.0682389784554    0.109800851286956     1.17803982974235    0.890199148713016     1.19999999999975    0.999999999999748     1.17803982974235                    1 -2.51354492775135e-13 1
0.3625     1.05622480774317    0.119812660213809     1.17603746795698    0.880187339786161     1.19999999999975    0.999999999999749     1.17603746795698    0.999999999999999 -2.51354492775135e-13 1
0.3675     1.04376039822424    0.130199668146253     1.17396006637049    0.869800331853715     1.19999999999975     0.99999999999975     1.17396006637049    0.999999999999998 -2.50022225145585e-13 1
0.3725     1.03085805076648    0.140951624361052     1.17180967512753    0.859048375638913     1.19999999999975    0.999999999999751     1.17180967512753    0.999999999999998 -2.4891200212096e-13 1
0.3775     1.01753049843729    0.152057917968713       1.169588416406    0.847942082031249     1.19999999999975     0.99999999999975       1.169588416406                    1 -2.4980018054066e-13 1
0.3825     1.00379089391229    0.163507588406207      1.1672984823185    0.836492411593752     1.19999999999975     0.99999999999975      1.1672984823185                    1 -2.50022225145585e-13 1
0.3875    0.989652796521603    0.175289336231782     1.16494213275339    0.824710663768174     1.19999999999975    0.999999999999751     1.16494213275339                    1 -2.4935609133081e-13 1
0.3925    0.975130158866155    0.187391534277989     1.16252169314415    0.812608465721964     1.19999999999975    0.999999999999751     1.16252169314414                    1 -2.48689957516035e-13 1
0.3975    0.960237313037268    0.199802239135396     1.16003955217267    0.800197760864555     1.19999999999975    0.999999999999753     1.16003955217266                    1 -2.4757973449141e-13 1
0.4025    0.944988956470726    0.212509202940847     1.15749815941158    0.787490797059101     1.19999999999975    0.999999999999753     1.15749815941157                    1 -2.47357689886485e-13 1
0.4075    0.929400137452079    0.225499885456385     1.15490002290847    0.774500114543559     1.19999999999975    0.999999999999752     1.15490002290846                    1 -2.47801779096335e-13 1
0.4125    0.913486240267966    0.238761466443144     1.15224770671111    0.761238533556796     1.19999999999975    0.999999999999751     1.15224770671111                    1 -2.49578135935735e-13 1
0.4175    0.897262970014652    0.252280858320903     1.14954382833556    0.747719141679033     1.19999999999975    0.999999999999748     1.14954382833555                    1 -2.52020626589911e-13 1
0.4225    0.880746337099676     0.26604471908338     1.14679105618306    0.733955280916552     1.19999999999975    0.999999999999745     1.14679105618306                    1 -2.54463117244086e-13 1
0.4275    0.863952641441243    0.280039465465407     1.14399210690665    0.719960534534522     1.19999999999975    0.999999999999745     1.14399210690665                    1 -2.54907206453936e-13 1
0.4325     0.84689845639244    0.294251286339411     1.14114974273185    0.705748713660515     1.19999999999975    0.999999999999748     1.14114974273185                    1 -2.52686760404686e-13 1
0.4375    0.829600612378926    0.308666156350676      1.1382667687296    0.691333843649248     1.19999999999975    0.999999999999752      1.1382667687296    0.999999999999999 -2.4802382370126e-13 1
0.4425    0.812076180282513    0.323269849764356     1.13534603004687    0.676730150235565     1.19999999999976    0.999999999999756     1.13534603004687    0.999999999999999 -2.44027020812609e-13 1
0.4475    0.794342454597669    0.338047954501727      1.1323904090994    0.661952045498191     1.19999999999976    0.999999999999758      1.1323904090994    0.999999999999999 -2.41584530158434e-13 1
0.4525    0.776416936369637     0.35298588635842     1.12940282272806    0.647014113641494     1.19999999999976    0.999999999999758     1.12940282272806                    1 -2.41806574763359e-13 1
0.4575     0.75831731592858    0.368068903392632     1.12638621932122    0.631931096607278     1.19999999999976    0.999999999999756     1.12638621932121                    1 -2.43804976207684e-13 1
0.4625     0.74006145541514    0.383282120487162     1.12334357590231    0.616717879512743     1.19999999999975    0.999999999999753      1.1233435759023     1.00000000000001 -2.4669155607171e-13 1
0.4675    0.721667371149457    0.398610524041896     1.12027789519136    0.601389475958005     1.19999999999975    0.999999999999752     1.12027789519135     1.00000000000001 -2.48245868306185e-13 1
0.4725    0.703153215874729    0.414038986770835     1.11719220264558    0.585961013229062     1.19999999999975    0.999999999999752     1.11719220264556     1.00000000000001 -2.48245868306185e-13 1
0.4775    0.684537260832925    0.429552282639004     1.11408954347194    0.570447717360889     1.19999999999975    0.999999999999752     1.11408954347193     1.00000000000001 -2.48245868306185e-13 1
0.4825    0.665837877724633    0.445135101895915     1.11097297962056    0.554864898103975     1.19999999999975    0.999999999999753     1.11097297962055     1.00000000000001 -2.46913600676635e-13 1
0.4875    0.647073520579045    0.460772066183906     1.10784558676296    0.539227933815981     1.19999999999975    0.999999999999755     1.10784558676295     1.00000000000001 -2.4535928844216e-13 1
0.4925    0.628262707545158    0.476447743712145     1.10471045125731    0.523552256287739     1.19999999999976    0.999999999999755      1.1047104512573     1.00000000000001 -2.44471110022459e-13 1
0.4975    0.609424002633004    0.492146664472272     1.10157066710528    0.507853335527607     1.19999999999975    0.999999999999754     1.10157066710528                    1 -2.4580337765201e-13 1
0.5025    0.590575997373755    0.507853335521643      1.0984293328954    0.492146664478231     1.19999999999975    0.999999999999752      1.0984293328954                    1 -2.48356890608648e-13 1
0.5075    0.571737292466393    0.523552256277777     1.09528954874417    0.476447743722093     1.19999999999975    0.999999999999752     1.09528954874417                    1 -2.47912801398797e-13 1
0.5125    0.552926479435848    0.539227933803233     1.09215441323908    0.460772066196634     1.19999999999975    0.999999999999754     1.09215441323908    0.999999999999999 -2.4580337765201e-13 1
0.5175    0.534162122283723     0.55486489809667     1.08902702038039    0.445135101903194     1.19999999999975    0.999999999999755     1.08902702038039    0.999999999999998 -2.45137243837235e-13 1
0.5225    0.515462739171304    0.570447717357018     1.08591045652832    0.429552282642842     1.19999999999975    0.999999999999754     1.08591045652832                    1 -2.46358489164322e-13 1
0.5275     0.49684678413498     0.58596101322062      1.0828077973556    0.414038986779235     1.19999999999975    0.999999999999752      1.0828077973556                    1 -2.47801779096335e-13 1
0.5325    0.478332628866743    0.601389475944149     1.07972210481089    0.398610524055702     1.19999999999975    0.999999999999752     1.07972210481089                    1 -2.4846791291111e-13 1
0.5375    0.459938544595806    0.616717879503263     1.07665642409907    0.383282120496584     1.19999999999975    0.999999999999752     1.07665642409907                    1 -2.47690756793872e-13 1
0.5425    0.441682684073903     0.63193109660485     1.07361378067875    0.368068903394994     1.19999999999975    0.999999999999754     1.07361378067875    0.999999999999999 -2.46136444559397e-13 1
0.5475    0.423583063636569    0.647014113635963     1.07059717727253    0.352985886363879     1.19999999999976    0.999999999999756     1.07059717727253                    1 -2.43693953905222e-13 1
0.5525    0.405657545418947    0.661952045483983     1.06760959090293    0.338047954515857     1.19999999999976    0.999999999999759     1.06760959090293                    1 -2.40696351738734e-13 1
0.5575    0.387923819730811    0.676730150224095     1.06465396995491    0.323269849775741     1.19999999999976    0.999999999999759     1.06465396995491                    1 -2.41473507855972e-13 1
0.5625    0.370399387624313    0.691333843646173     1.06173323127049    0.308666156353657     1.19999999999975    0.999999999999754     1.06173323127049                    1 -2.45581333047085e-13 1
0.5675    0.353101543611037    0.705748713657233     1.05885025726827    0.294251286342592     1.19999999999975    0.999999999999752     1.05885025726827                    1 -2.48356890608648e-13 1
0.5725    0.336047358570649    0.719960534524221     1.05600789309487    0.280039465475599     1.19999999999975     0.99999999999975     1.05600789309487                    1 -2.49689158238198e-13 1
0.5775    0.319253662915457    0.733955280903548     1.05320894381901    0.266044719096269     1.19999999999975    0.999999999999751       1.053208943819                    1 -2.49134046725885e-13 1
0.5825    0.302737029994783    0.747719141670778     1.05045617166556    0.252280858329038     1.19999999999975    0.999999999999753     1.05045617166556                    1 -2.46913600676635e-13 1
0.5875    0.286513759733541    0.761238533555147     1.04775229328869    0.238761466444667     1.19999999999975    0.999999999999755     1.04775229328869    0.999999999999999 -2.45026221534772e-13 1
0.5925    0.270599862551184    0.774500114540444     1.04509997709163    0.225499885459366     1.19999999999975    0.999999999999755     1.04509997709163    0.999999999999999 -2.44804176929847e-13 1
0.5975    0.255011043543138    0.787490797047148     1.04250184059028    0.212509202952659     1.19999999999975    0.999999999999754     1.04250184059029    0.999999999999999 -2.45692355349547e-13 1
0.6025    0.239762686978806    0.800197760850755     1.03996044782956    0.199802239149046     1.19999999999975    0.999999999999752     1.03996044782956                    1 -2.48245868306185e-13 1
0.6075     0.22486984113874    0.812608465717474     1.03747830685621    0.187391534282323     1.19999999999975    0.999999999999749     1.03747830685621    0.999999999999999 -2.50577336657898e-13 1
0.6125     0.21034720347642    0.824710663769404     1.03505786724582    0.175289336230387     1.19999999999975    0.999999999999747     1.03505786724582                    1 -2.52575738102223e-13 1
0.6175     0.19620910609286    0.836492411589037      1.0327015176819    0.163507588410751     1.19999999999975    0.999999999999747      1.0327015176819                    1 -2.52575738102223e-13 1
0.6225    0.182469501577667    0.847942082018364     1.03041158359604    0.152057917981422     1.19999999999975    0.999999999999747     1.03041158359603                    1 -2.52575738102223e-13 1
0.6275    0.169141949246913    0.859048375627326     1.02819032487424    0.140951624372457     1.19999999999975    0.999999999999747     1.02819032487424                    1 -2.52575738102223e-13 1
0.6325    0.156239601779905    0.869800331849833     1.02603993362974    0.130199668149948     1.19999999999975    0.999999999999748     1.02603993362974                    1 -2.5157653738006e-13 1
0.6375    0.143775192253549    0.880187339788463     1.02396253204202    0.119812660211316     1.19999999999975    0.999999999999748     1.02396253204201     1.00000000000001 -2.51798581984986e-13 1
0.6425    0.131761021546399    0.890199148711087     1.02196017025749    0.109800851288689     1.19999999999975    0.999999999999748     1.02196017025749     1.00000000000001 -2.52353693497298e-13 1
0.6475    0.120208946186374    0.899825878177774     1.02003482436416    0.100174121821999     1.19999999999975    0.999999999999748     1.02003482436415     1.00000000000001 -2.51687559682523e-13 1
0.6525    0.109130366661091    0.909058027782178     1.01818839444328   0.0909419722175945     1.19999999999975     0.99999999999975     1.01818839444327     1.00000000000001 -2.50022225145585e-13 1
0.6575   0.0985362161864344    0.917886486511058      1.0164227026975   0.0821135134887125     1.19999999999975    0.999999999999749     1.01642270269749     1.00000000000001 -2.50577336657898e-13 1
0.6625   0.0884369499208126    0.926302541732407     1.01473949165323   0.0736974582673593     1.19999999999975    0.999999999999748     1.01473949165322     1.00000000000001 -2.51909604287448e-13 1
0.6675   0.0788425346382528    0.934297887801206     1.01314042243947   0.0657021121985578     1.19999999999975    0.999999999999748     1.01314042243946     1.00000000000001 -2.52242671194836e-13 1
0.6725    0.069762438872125     0.94186463427298     1.01162707314511    0.058135365726783     1.19999999999975    0.999999999999749     1.01162707314511     1.00000000000001 -2.51243470472673e-13 1
0.6775   0.0612056235576255    0.948995313701731     1.01020093725936   0.0510046862980319     1.19999999999975     0.99999999999975     1.01020093725936     1.00000000000001 -2.50355292052973e-13 1
0.6825   0.0531805332193276    0.955682888983645     1.00886342220298   0.0443171110161156     1.19999999999975     0.99999999999975     1.00886342220297     1.00000000000001 -2.50355292052973e-13 1
0.6875   0.0456950876613568    0.961920760281953     1.00761584794332   0.0380792397178053     1.19999999999975    0.999999999999749     1.00761584794331                    1 -2.50910403565285e-13 1
0.6925   0.0387566741446348    0.967702771545888     1.00645944569053   0.0322972284538691     1.19999999999975    0.999999999999749     1.00645944569052                    1 -2.51021425867748e-13 1
0.6975   0.0323721400607329    0.973023216615805     1.00539535667654   0.0269767833839497     1.19999999999975    0.999999999999748     1.00539535667654                    1 -2.51687559682523e-13 1
0.7025   0.0265477861535787    0.977876844871767     1.00442463102535   0.0221231551279869     1.19999999999975    0.999999999999748     1.00442463102535     1.00000000000001 -2.51798581984986e-13 1
0.7075   0.0212893603270691    0.982258866393859     1.00354822672093   0.0177411336058947     1.19999999999975     0.99999999999975     1.00354822672093                    1 -2.50466314355435e-13 1
0.7125   0.0166020519981087    0.986164956667994     1.00276700866611   0.0138350433317601     1.19999999999975     0.99999999999975      1.0027670086661                    1 -2.49689158238198e-13 1
0.7175   0.0124904869956376     0.98959126083672     1.00208174783236   0.0104087391630335     1.19999999999975    0.999999999999751     1.00208174783236                    1 -2.49245069028348e-13 1
0.7225  0.00895872298026708    0.992534397516195     1.00149312049647  0.00746560248355752     1.19999999999974    0.999999999999751     1.00149312049646                    1 -2.49467113633273e-13 1
0.7275  0.00601024539874725     0.99499146216746     1.00100170756621  0.00500853783229042     1.19999999999975     0.99999999999975     1.00100170756621                    1 -2.50466314355435e-13 1
0.7325   0.0036479640166023    0.996960029985914     1.00060799400252  0.00303997001383592     1.19999999999973    0.999999999999749     1.00060799400252                    1 -2.51243470472673e-13 1
0.7375  0.00187421006674984    0.998438158277458     1.00031236834421  0.00156184172229185     1.19999999999976    0.999999999999749     1.00031236834421    0.999999999999999 -2.5068835896036e-13 1
0.7425 0.000690733993844577    0.999424388338214     1.00011512233206 0.000575611661537333     1.19999999999961    0.999999999999752     1.00011512233206    0.999999999999997 -2.48356890608648e-13 1
0.7475 9.87037733595684e-05    0.999917746855287     1.00001645062864 8.22531444663247e-05     1.19999999999974    0.999999999999753     1.00001645062865    0.999999999999997 -2.47024622979097e-13 1