TITLE=FVSolution
VARIABLES=X lambda badcell
ZONE T=TA
0.0025 0 0
0.0075 0 0
0.0125 3.64079e-145 0
0.0175 3.64079e-145 0
0.0225 3.64079e-145 0
0.0275 0 0
0.0325 0 0
0.0375 3.64079e-145 0
0.0425 3.64079e-145 0
0.0475 3.55546e-148 0
0.0525 3.47213e-151 0
0.0575 3.55546e-148 0
0.0625 3.55546e-148 0
0.0675 0 0
0.0725 3.47213e-151 0
0.0775 3.55546e-148 0
0.0825 3.55546e-148 0
0.0875 0 0
0.0925 3.55546e-148 0
0.0975 3.47213e-151 0
0.1025 3.47213e-151 0
0.1075 3.47213e-151 0
0.1125 3.47213e-151 0
0.1175 0 0
0.1225 0 0
0.1275 3.47213e-151 0
0.1325 3.55546e-148 0
0.1375 3.55546e-138 0
0.1425 3.13357e-126 0
0.1475 2.29163e-122 0
0.1525 2.11142e-127 0
0.1575 1.54445e-128 0
0.1625 3.92744e-118 0
0.1675 2.77049e-114 0
0.1725 3.30224e-113 0
0.1775 3.48007e-116 0
0.1825 3.25753e-124 0
0.1875 2.46414e-118 0
0.1925 2.51155e-103 0
0.1975 6.82389e-89 0
0.2025 2.26104e-77 0
0.2075 2.1658e-66 0
0.2125 8.07606e-55 0
0.2175 9.58331e-43 0
0.2225 3.15058e-23 0
0.2275 0.000202153 0
0.2325 0.35 0
0.2375 0.35 0
0.2425 0.35 0
0.2475 0.349999 0
0.2525 0.35 0
0.2575 0.35 0
0.2625 0.35 0
0.2675 0.35 0
0.2725 0.000419234 0
0.2775 3.12696e-23 0
0.2825 1.02898e-43 0
0.2875 1.22072e-55 0
0.2925 1.4944e-66 0
0.2975 1.2995e-76 0
0.3025 6.14918e-87 0
0.3075 1.24793e-98 0
0.3125 3.48898e-115 0
0.3175 3.07229e-118 0
0.3225 5.29876e-113 0
0.3275 4.66625e-111 0
0.3325 1.09982e-111 0
0.3375 1.32332e-114 0
0.3425 2.95492e-121 0
0.3475 1.4729e-134 0
0.3525 1.0834e-122 0
0.3575 1.18228e-124 0
0.3625 7.68387e-132 0
0.3675 3.55546e-148 0
0.3725 0 0
0.3775 0 0
0.3825 3.55546e-148 0
0.3875 0 0
0.3925 3.55546e-148 0
0.3975 3.64079e-145 0
0.4025 2.05026e-146 0
0.4075 2.05026e-146 0
0.4125 0 0
0.4175 3.64079e-145 0
0.4225 3.47213e-151 0
0.4275 2.05026e-146 0
0.4325 0 0
0.4375 0 0
0.4425 3.64079e-145 0
0.4475 3.55546e-148 0
0.4525 0 0
0.4575 3.64079e-145 0
0.4625 3.64079e-145 0
0.4675 0 0
0.4725 3.64079e-145 0
0.4775 3.64079e-145 0
0.4825 3.64079e-145 0
0.4875 3.64079e-145 0
0.4925 0 0
0.4975 0 0
0.5025 0 0
0.5075 0 0
0.5125 3.64079e-145 0
0.5175 3.64079e-145 0
0.5225 3.64079e-145 0
0.5275 0 0
0.5325 0 0
0.5375 3.64079e-145 0
0.5425 3.64079e-145 0
0.5475 3.55546e-148 0
0.5525 3.64079e-145 0
0.5575 3.55546e-148 0
0.5625 2.05026e-146 0
0.5675 0 0
0.5725 3.47213e-151 0
0.5775 0 0
0.5825 3.55546e-148 0
0.5875 0 0
0.5925 0 0
0.5975 3.64079e-145 0
0.6025 3.55546e-148 0
0.6075 3.47213e-151 0
0.6125 3.55546e-148 0
0.6175 3.55546e-148 0
0.6225 2.05026e-146 0
0.6275 0 0
0.6325 0 0
0.6375 2.20145e-137 0
0.6425 3.13357e-126 0
0.6475 2.29163e-122 0
0.6525 1.94124e-127 0
0.6575 1.46254e-128 0
0.6625 3.90804e-118 0
0.6675 2.76484e-114 0
0.6725 3.29173e-113 0
0.6775 3.55785e-116 0
0.6825 3.25753e-124 0
0.6875 2.47695e-118 0
0.6925 2.51237e-103 0
0.6975 6.82381e-89 0
0.7025 2.26102e-77 0
0.7075 2.16579e-66 0
0.7125 8.07605e-55 0
0.7175 9.5833e-43 0
0.7225 3.15058e-23 0
0.7275 0.000202153 0
0.7325 0.35 0
0.7375 0.35 0
0.7425 0.35 0
0.7475 0.349999 0
0.7525 0.35 0
0.7575 0.35 0
0.7625 0.35 0
0.7675 0.35 0
0.7725 0.000419234 0
0.7775 3.12696e-23 0
0.7825 1.02898e-43 0
0.7875 1.22072e-55 0
0.7925 1.49441e-66 0
0.7975 1.2995e-76 0
0.8025 6.14921e-87 0
0.8075 1.24765e-98 0
0.8125 3.46279e-115 0
0.8175 3.02584e-118 0
0.8225 5.26665e-113 0
0.8275 4.67078e-111 0
0.8325 1.10353e-111 0
0.8375 1.32041e-114 0
0.8425 2.89541e-121 0
0.8475 1.4729e-134 0
0.8525 1.06818e-122 0
0.8575 1.13077e-124 0
0.8625 7.68387e-132 0
0.8675 2.05026e-146 0
0.8725 0 0
0.8775 3.55546e-148 0
0.8825 3.55546e-148 0
0.8875 3.55546e-148 0
0.8925 3.55546e-148 0
0.8975 3.47213e-151 0
0.9025 0 0
0.9075 3.55546e-148 0
0.9125 0 0
0.9175 3.64079e-145 0
0.9225 0 0
0.9275 3.55546e-148 0
0.9325 0 0
0.9375 0 0
0.9425 3.64079e-145 0
0.9475 3.55546e-148 0
0.9525 0 0
0.9575 3.64079e-145 0
0.9625 3.64079e-145 0
0.9675 0 0
0.9725 3.64079e-145 0
0.9775 3.64079e-145 0
0.9825 3.64079e-145 0
0.9875 3.64079e-145 0
0.9925 0 0
0.9975 0 0
