TITLE=FVSolution
VARIABLES=X z1
ZONE T=TA
0 1e-8
0.3999 1e-8
0.4001 0.99999999
0.5999 0.99999999
0.6001 1e-8
1.0 1e-8