TITLE=FVSolution
VARIABLES=X RHO1Z1 RHO2Z2 RHOU Z1 RHO1 RHO2 RHO U PRE theta
ZONE T=TA
0.0025 9.98289281315911e-06    0.999999989996887      1.0000099728964  9.9829227038375e-09      999.99700581891     0.99999999997981      1.0000099728897      1.0000000000067 -9.89329840273001e-08 1
0.0075  9.9891770780856e-06    0.999999989990575     1.00000997917558  9.9891948762793e-09     999.998218255432     0.99999999997977     1.00000997916765     1.00000000000793 -9.91266513317157e-08 1
0.0125 9.99992058335915e-06    0.999999989979809     1.00000998990709 9.99993359576261e-09     999.998698751013    0.999999999979742     1.00000998990039      1.0000000000067 -9.92631976615144e-08 1
0.0175 1.00126649200216e-05    0.999999989967063     1.00001000263659 1.00126680064771e-08     999.999691744946    0.999999999979731     1.00001000263198     1.00000000000461 -9.93170545804389e-08 1
0.0225 1.00239452598682e-05    0.999999989955774     1.00001001390255 1.00239769234546e-08     999.996841215153    0.999999999979751     1.00001001390103     1.00000000000152 -9.92218529560773e-08 1
0.0275 1.00297724247805e-05    0.999999989949943     1.00001001972409 1.00297739313175e-08     999.999849793528    0.999999999979717     1.00001001972237     1.00000000000172 -9.93866877685434e-08 1
0.0325 1.00264232154082e-05    0.999999989953273     1.00001001637584 1.00264477792652e-08     999.997550093762     0.99999999997972     1.00001001637649    0.999999999999348 -9.93698234807994e-08 1
0.0375 1.00118402596256e-05    0.999999989967859      1.0000100018035 1.00119077431505e-08     999.993259673719    0.999999999979767     1.00001000180812    0.999999999995381 -9.91407955730494e-08 1
0.0425  9.9868701363338e-06    0.999999989992834     1.00000997685643 9.98691408630082e-09     999.995599244507    0.999999999979748     1.00000997686297    0.999999999993462 -9.92332771510007e-08 1
0.0475 9.95633676052294e-06    0.999999990023375     1.00000994635353 9.95631348742057e-09     1000.00233752206    0.999999999979689     1.00000994636014    0.999999999993397 -9.95248661261883e-08 1
0.0525 9.92910080579721e-06    0.999999990050619     1.00000991914293 9.92913407350714e-09     999.996649485274    0.999999999979753     1.00000991915142    0.999999999991501 -9.9210972770436e-08 1
0.0575 9.91654470332407e-06    0.999999990063152     1.00000990660017 9.91658972862442e-09     999.995459598352    0.999999999979741     1.00000990660785     0.99999999999231 -9.92675497357709e-08 1
0.0625 9.92968133936733e-06    0.999999990050046      1.0000099197234 9.92970427100184e-09     999.997690602471     0.99999999997975     1.00000991973139    0.999999999992013 -9.92229409746415e-08 1
0.0675 9.97491730239779e-06    0.999999990004809     1.00000996491054 9.97493993891266e-09     999.997730661536    0.999999999979749     1.00000996492211    0.999999999988428 -9.92300130953083e-08 1
0.0725 1.00498077547245e-05    0.999999989929887     1.00001003972476 1.00498258765469e-08     999.998196802351    0.999999999979713     1.00001003973764    0.999999999987116 -9.94068161119799e-08 1
0.0775 1.01400452774455e-05    0.999999989839634     1.00001012987206 1.01401071465367e-08      999.99389857619    0.999999999979741     1.00001012988491    0.999999999987148 -9.92697257728992e-08 1
0.0825 1.02195988668082e-05    0.999999989760091     1.00001020934374 1.02196496970437e-08     999.995026225265    0.999999999979741     1.00001020935896     0.99999999998478 -9.9268637754335e-08 1
0.0875 1.02550077211489e-05    0.999999989724707     1.00001024471428 1.02550019417138e-08      1000.0005635723    0.999999999979709     1.00001024473243     0.99999999998185 -9.94274884646984e-08 1
0.0925 1.02140959640521e-05    0.999999989765607     1.00001020384178 1.02141377879285e-08     999.995905295464    0.999999999979745     1.00001020386157    0.999999999980212 -9.92485094108986e-08 1
0.0975 1.00779283333306e-05     0.99999998990178     1.00001006781097 1.00779556196173e-08     999.997292477988    0.999999999979735     1.00001006783011    0.999999999980853 -9.92974702462845e-08 1
0.1025 9.85296043528415e-06    0.999999990126775       1.000009843068 9.85301270796781e-09     999.994694751219    0.999999999979788     1.00000984308721    0.999999999980795 -9.9039065837303e-08 1
0.1075 9.57951365096091e-06    0.999999990400232     1.00000956989314 9.57950797635627e-09     1000.00059236911     0.99999999997974     1.00000956991388    0.999999999979255 -9.92724458193095e-08 1
0.1125 9.33207021856612e-06    0.999999990647682     1.00000932269748 9.33213729658275e-09     999.992812148546    0.999999999979819      1.0000093227179    0.999999999979579 -9.88845672011962e-08 1
0.1175 9.20785776882298e-06    0.999999990771889     1.00000919860836  9.2079292756596e-09      999.99223421092    0.999999999979819     1.00000919862966    0.999999999978702 -9.88889192754527e-08 1
0.1225 9.30303095867434e-06    0.999999990676709     1.00000929368402 9.30305722435487e-09     999.997176661403    0.999999999979766     1.00000929370767    0.999999999976349 -9.9145691656588e-08 1
0.1275 9.67975199747343e-06    0.999999990299984     1.00000967002625 9.67976770250302e-09     999.998377540653    0.999999999979751     1.00000967005198    0.999999999974274 -9.92180448911029e-08 1
0.1325 1.03318805431351e-05    0.999999989647855     1.00001032150197 1.03318835705787e-08     999.999706980469    0.999999999979739      1.0000103215284    0.999999999973567 -9.92806059585405e-08 1
0.1375 1.11595728547205e-05    0.999999988820199     1.00001114836672 1.11595252340984e-08     1000.00426726238    0.999999999979724     1.00001114839305    0.999999999973671 -9.93524151837732e-08 1
0.1425 1.19631265586471e-05    0.999999988016659     1.00001195111733  1.1963123569925e-08      1000.0002498279    0.999999999979782     1.00001195114322    0.999999999974113 -9.90668103106884e-08 1
0.1475 1.24661387175719e-05    0.999999987513644     1.00001245362768 1.24661327931434e-08     1000.00047524189    0.999999999979777     1.00001245365236    0.999999999975321 -9.90950987933559e-08 1
0.1525 1.23748023899347e-05    0.999999987605011     1.00001236238286 1.23748061610793e-08     999.999695256268    0.999999999979817      1.0000123624074    0.999999999975463 -9.88970794146837e-08 1
0.1575  1.1469670830912e-05    0.999999988510152     1.00001145815512 1.14696176382848e-08     1000.00463769839     0.99999999997977     1.00001145818098    0.999999999974134 -9.9128827368844e-08 1
0.1625 9.70641822714035e-06    0.999999990273419      1.0000096966658 9.70637691892072e-09     1000.00425578153    0.999999999979795     1.00000969669165    0.999999999974158 -9.90020732061225e-08 1
0.1675 7.28922759010941e-06    0.999999992690606     1.00000728189157 7.28921470608142e-09     1000.00176754678    0.999999999979821      1.0000072819182    0.999999999973371 -9.88764070619652e-08 1
0.1725 4.69677767400184e-06    0.999999995283042     1.00000469203313 4.69671676363039e-09     1000.01296871294    0.999999999979759     1.00000469206072    0.999999999972413 -9.91810522599224e-08 1
0.1775 2.66420153353767e-06    0.999999997315626     1.00000266148767 2.66424779386433e-09      999.98263662758    0.999999999979873     1.00000266151716    0.999999999970508 -9.8620178690112e-08 1
0.1825 2.09917839404491e-06     0.99999999788065     1.00000209702947 2.09918207664247e-09     999.998245698837    0.999999999979832     1.00000209705904    0.999999999970422 -9.88220061337586e-08 1
0.1875  3.8550746009663e-06    0.999999996124757     1.00000385117228 3.85510526149105e-09     999.992046773648    0.999999999979862     1.00000385119936    0.999999999972923 -9.86772996647289e-08 1
0.1925  8.3596637243553e-06    0.999999991620202     1.00000835125631 8.35966546941577e-09     999.999791252357    0.999999999979867     1.00000835128393    0.999999999972383 -9.86495551913436e-08 1
0.1975 1.53363846442529e-05    0.999999984643493     1.00001532100097 1.53364119484149e-08     999.998219651237    0.999999999979905     1.00001532102814    0.999999999972831 -9.84635040168769e-08 1
0.2025 2.38769996294979e-05    0.999999976102891     1.00002385307516 2.38770200894734e-08     999.999143110177    0.999999999979912     1.00002385310252    0.999999999972644 -9.84335835063632e-08 1
0.2075 3.26318062614838e-05    0.999999967348088     1.00003259912715 3.26318324226976e-08      999.99919829161     0.99999999997992     1.00003259915435    0.999999999972798 -9.83916947916441e-08 1
0.2125 3.96014524849718e-05    0.999999960378422     1.00003956180374 3.96014514330154e-08     1000.00002656358    0.999999999979873     1.00003956183091    0.999999999972837 -9.86212667086761e-08 1
0.2175  4.1953988278945e-05    0.999999958025902       1.000041911987 4.19539912631238e-08     999.999928870204    0.999999999979893     1.00004191201418    0.999999999972824 -9.85249770657504e-08 1
0.2225 3.73302002820526e-05     0.99999996264971     1.00003729282322 3.73301647458972e-08      1000.0009519421    0.999999999979874     1.00003729284999    0.999999999973229 -9.86152826065734e-08 1
0.2275 2.65187648591974e-05     0.99999997346115      1.0000264922008 2.65187450822985e-08     1000.00074577054    0.999999999979895     1.00002649222601     0.99999999997479 -9.85162729172373e-08 1
0.2325 1.41476965343842e-05    0.999999985832218     1.00001413350344 1.41477402378504e-08     999.996910922487    0.999999999979959     1.00001413352875    0.999999999974686 -9.82029235707671e-08 1
0.2375 5.01756799568266e-06    0.999999994962348     1.00000501250545 5.01754788729965e-09     1000.00400761158    0.999999999979896     1.00000501253034    0.999999999975106 -9.85097448058525e-08 0
0.2425 9.99999999902064e-11    0.999999999979821     1.00000000005521 9.50329157789983e-14     1052.26698739581    0.999999999979916     1.00000000007982    0.999999999975394 -9.84134551629268e-08 0
0.2475 0.000287373271599459    0.999999712606656     1.00028708585323 2.87373265143248e-07     1000.00002246629    0.999999999979921     1.00028708587826    0.999999999974985 -9.83878867266696e-08 0
0.2525  0.00216400421965073    0.999997835975713     1.00216184017178 2.16400421856095e-06      1000.0000005036    0.999999999979931     1.00216184019536    0.999999999976471 -9.83372938634375e-08 1
0.2575  0.00678568940624416    0.999993214290507      1.0067789036745 6.78568935909723e-06     1000.00000694799    0.999999999979866     1.00677890369675    0.999999999977903 -9.86560833027283e-08 1
0.2625   0.0143189322453621    0.999985681047683     1.01430461327183 1.43189322472364e-05     999.999999869104     0.99999999997993     1.01430461329305     0.99999999997908 -9.83427339562581e-08 1
0.2675   0.0241157991482783    0.999975884180791     1.02409168330822 2.41157991284292e-05     1000.00000082308    0.999999999979919     1.02409168332907    0.999999999979639 -9.83976788937468e-08 1
0.2725   0.0348763390145204    0.999965123640918     1.03484146263441 3.48763390242142e-05     999.999999722052    0.999999999979942     1.03484146265544    0.999999999979681 -9.82861569909232e-08 1
0.2775   0.0448838414010297    0.999955116138539     1.04483895751894 4.48838414215184e-05     999.999999543517    0.999999999979959     1.04483895753957    0.999999999980255 -9.81991155057926e-08 1
0.2825   0.0523842256434507    0.999947615754309     1.05233184137771  5.2384225633666e-05     1000.00000018679    0.999999999979942     1.05233184139776    0.999999999980945 -9.82850689723591e-08 1
0.2875   0.0561096592342731    0.999943890320716     1.05605354953708 5.61096592418388e-05     999.999999865162    0.999999999979956     1.05605354955499    0.999999999983042 -9.82143477656905e-08 1
0.2925   0.0559488653975387    0.999944051114555     1.05589291649444 5.59488654489964e-05     999.999999080273    0.999999999980003     1.05589291651209    0.999999999983278 -9.79847758486585e-08 1
0.2975   0.0538365771966691    0.999946163402746     1.05378274058197 5.38365771928769e-05     1000.00000007044    0.999999999979938     1.05378274059941    0.999999999983446 -9.83057413250776e-08 1
0.3025   0.0550107290221064    0.999944989250929     1.05495571825645 5.50107290143043e-05     1000.00000014183    0.999999999979943     1.05495571827304    0.999999999984282 -9.82812609073846e-08 1
0.3075   0.0698540389890796    0.999930145940964     1.06978418491431 6.98540390160008e-05     999.999999614608    0.999999999979978     1.06978418493004    0.999999999985296 -9.81066339278414e-08 1
0.3125     0.11661173260602    0.999883388247357     1.11649512083903 0.000116611732628478     999.999999807415    0.999999999979983     1.11649512085338    0.999999999987147 -9.80832415287125e-08 1
0.3175      0.2253762230819    0.999774623756893     1.22515084682499 0.000225376223066436     1000.00000006862    0.999999999979955     1.22515084683879    0.999999999988736 -9.82197878585112e-08 1
0.3225    0.443884660539761    0.999556115319453     1.44344077584397 0.000443884660593751     999.999999878369    0.999999999980038     1.44344077585921    0.999999999989439 -9.78134129248076e-08 1
0.3275    0.845865580662287    0.999154134399336     1.84501971504204 0.000845865580669368     999.999999991629    0.999999999979989     1.84501971506162    0.999999999989385 -9.80560410646092e-08 1
0.3325     1.54229360933967    0.998457706370692     2.54075131568694  0.00154229360930291     1000.00000002383    0.999999999979964     2.54075131571036    0.999999999990783 -9.81757231066638e-08 1
0.3375      2.6919603362538    0.997308039643822     3.68926837586786   0.0026919603362571     999.999999998777    0.999999999980025     3.68926837589763    0.999999999991931 -9.78781500293735e-08 1
0.3425     4.49642416119597    0.995503575818924      5.4919277369762  0.00449642416117767     1000.00000000407    0.999999999980012     5.49192773701489    0.999999999992954 -9.79407110968111e-08 1
0.3475     7.16679583478612    0.992833204145419     8.15962903888463  0.00716679583479469     999.999999998803     0.99999999998007     8.15962903893153    0.999999999994252 -9.76545622144442e-08 1
0.3525     10.8995497960902    0.989100450184268     11.8886502462255   0.0108995497960636     1000.00000000244    0.999999999980115     11.8886502462745    0.999999999995879 -9.74369585016177e-08 1
0.3575     15.9363891243576    0.984063610856191     16.9204527351692    0.015936389124355     1000.00000000016    0.999999999980231     16.9204527352138    0.999999999997364 -9.68679247925763e-08 1
0.3625     22.7585790923371    0.977241420888454        23.7358205132   0.0227585790923757     999.999999998307    0.999999999980383     23.7358205132256    0.999999999998924 -9.61242641039917e-08 1
0.3675     32.4513204351676    0.967548679545945     33.4188691147323   0.0324513204351736     999.999999999814    0.999999999980485     33.4188691147136     1.00000000000056 -9.56232315552086e-08 1
0.3725      47.350586697308    0.952649413284211     48.3032361106891    0.047350586697295     1000.00000000027    0.999999999980587     48.3032361105922     1.00000000000201 -9.51221990064255e-08 1
0.3775     72.3515458373874    0.927648454144662     73.2791942917303   0.0723515458373436      1000.0000000006    0.999999999980603     73.2791942915321     1.00000000000271 -9.50476697347824e-08 1
0.3825     117.055981731218    0.882944018251781     117.938925749921    0.117055981731274     999.999999999524    0.999999999980809      117.93892574947     1.00000000000382 -9.40379885072673e-08 1
0.3875     192.670988108461    0.807329011875875     193.478317121067    0.192670988108455     1000.00000000003     0.99999999998059     193.478317120337     1.00000000000377  -9.511023080222e-08 1
0.3925     300.618126134306    0.699381873851785     301.317508009244    0.300618126134331     999.999999999917    0.999999999980148     301.317508008158      1.0000000000036 -9.7275387744844e-08 1
0.3975        431.124283807    0.568875716181006     431.693159524036    0.431124283807003     999.999999999993    0.999999999978922     431.693159523181     1.00000000000198 -1.03282882246702e-07 1
0.4025     569.466596977724    0.430533403012623     569.897130380982    0.569466596977732     999.999999999985    0.999999999977598     569.897130380736     1.00000000000043 -7.18614501238335e-08 1
0.4075     699.721791878456      0.3002782081148     700.022070086019     0.69972179187847     999.999999999981    0.999999999977586     700.022070086571    0.999999999999212 -9.41440703172702e-08 1
0.4125     807.361325838374    0.192638674157451     807.553964512098     0.80736132583839      999.99999999998    0.999999999978411     807.553964512531    0.999999999999464 -9.86005943559576e-08 1
0.4175     882.850893895341    0.117149106102364     882.968043000743    0.882850893895357     999.999999999981     0.99999999998055     882.968043001443    0.999999999999208 -9.13587427930906e-08 1
0.4225     927.573099534425   0.0724269004642634     927.645526434373    0.927573099534442     999.999999999982    0.999999999982126     927.645526434889    0.999999999999443 -8.9130480773747e-08 1
0.4275     952.566799814487   0.0474332001847047     952.614233014528    0.952566799814503     999.999999999983    0.999999999983296     952.614233014672    0.999999999999849  -8.188862921088e-08 1
0.4325     967.452795030469    0.032547204969012      967.48534223565    0.967452795030484     999.999999999985    0.999999999984504     967.485342235438     1.00000000000022 -7.5203843152849e-08 1
0.4375     977.133112923635   0.0228668870760252     977.155979811219    0.977133112923649     999.999999999986    0.999999999985744     977.155979810711     1.00000000000052 -7.01902536093257e-08 1
0.4425     983.950964353776   0.0160490356460016     983.967013390134    0.983950964353789     999.999999999987    0.999999999986946     983.967013389422     1.00000000000072 -6.46195985609666e-08 1
0.4475     988.996665654991   0.0110033343448647     989.007668990193    0.988996665655003     999.999999999988    0.999999999988004     989.007668989336     1.00000000000087 -5.84918780077714e-08 1
0.4525     992.748878496214  0.00725112150369208      992.75612961864    0.992748878496226     999.999999999989     0.99999999998865     992.756129617718     1.00000000000093 -5.51494849787559e-08 1
0.4575     995.440548518272  0.00455945148166844     995.445107970689    0.995440548518282     999.999999999989     0.99999999998923     995.445107969753     1.00000000000094 -5.29212229594123e-08 1
0.4625     997.259517894853  0.00274048210510729     997.262258377914    0.997259517894864     999.999999999989    0.999999999989404     997.262258376958     1.00000000000096 -5.23641574545763e-08 1
0.4675     998.413765764667  0.00158623423530404     998.415351999854    0.998413765764678     999.999999999989    0.999999999988746     998.415351998902     1.00000000000095 -5.51494849787559e-08 1
0.4725     999.107147598282  0.00089285240169659      999.10804045157    0.999107147598293     999.999999999989    0.999999999988714     999.108040450684     1.00000000000089 -5.51494849787559e-08 1
0.4775     999.502468496665 0.000497531503317487     999.502966029014    0.999502468496677     999.999999999989    0.999999999988494     999.502966028169     1.00000000000085 -5.57065504835919e-08 1
0.4825     999.714212696418 0.000285787303566568     999.714498484521     0.99971421269643     999.999999999988    0.999999999988045     999.714498483722      1.0000000000008 -5.68206814932637e-08 1
0.4875     999.818532688259 0.000181467311726397     999.818714156258    0.999818532688271     999.999999999988    0.999999999987677     999.818714155571     1.00000000000069 -5.84918780077714e-08 1
0.4925     999.864038490853 0.000135961509132987     999.864174452942    0.999864038490865     999.999999999988    0.999999999988654     999.864174452363     1.00000000000058 -5.90489435126074e-08 1
0.4975     999.879358220361 0.000120641779624803     999.879478862643    0.999879358220374     999.999999999987    0.999999999987253      999.87947886214      1.0000000000005 -6.35054675512947e-08 1
0.5025     999.877751217451 0.000122248782534512     999.877873466687    0.999877751217464     999.999999999987    0.999999999986244     999.877873466233     1.00000000000045 -6.40625330561306e-08 1
0.5075     999.859360387856 0.000140639612129072     999.859501027873    0.999859360387869     999.999999999986    0.999999999986612     999.859501027468     1.00000000000041 -6.62907950754743e-08 1
0.5125     999.811368349695 0.000188631650289356     999.811556981645    0.999811368349708     999.999999999986    0.999999999986376     999.811556981345      1.0000000000003 -6.62907950754743e-08 1
0.5175     999.706026928572 0.000293973071411397     999.706320901831    0.999706026928585     999.999999999987    0.999999999987029     999.706320901643     1.00000000000019 -6.51766640658025e-08 1
0.5225     999.496244867619 0.000503755132360395     999.496748622863    0.999496244867633     999.999999999987    0.999999999986666     999.496748622752     1.00000000000011 -6.57337295706384e-08 1
0.5275     999.108110118091 0.000891889881883374     999.109002008026    0.999108110118104     999.999999999986    0.999999999986177     999.109002007973     1.00000000000005 -6.68478605803102e-08 1
0.5325     998.429925393499  0.00157007460646463     998.431495468071    0.998429925393513     999.999999999986    0.999999999985715     998.431495468105    0.999999999999965 -6.96331881044898e-08 1
0.5375     997.301055657955  0.00269894434199134     997.303754602147     0.99730105565797     999.999999999986    0.999999999985596     997.303754602297     0.99999999999985 -7.07473191141617e-08 1
0.5425     995.515845015282  0.00448415498463651     995.520329169972    0.995515845015297     999.999999999985    0.999999999985146     995.520329170267    0.999999999999704 -7.35326466383412e-08 1
0.5475     992.857598604662  0.00714240139521344     992.864741005588    0.992857598604677     999.999999999985    0.999999999984698     992.864741006057    0.999999999999528 -7.5203843152849e-08 1
0.5525     989.126277298315    0.010873722701499     989.137151020319    0.989126277298331     999.999999999984    0.999999999984355     989.137151021017    0.999999999999295 -7.63179741625208e-08 1
0.5575     984.080953374559   0.0159190466251671     984.096872420168    0.984080953374576     999.999999999984     0.99999999998384     984.096872421185    0.999999999998967 -8.07744982012082e-08 1
0.5625     977.244601915266    0.022755398084336      977.26735731196    0.977244601915282     999.999999999983    0.999999999983227      977.26735731335    0.999999999998578 -8.24456947157159e-08 1
0.5675     967.537153660568   0.0324628463388392      967.56961650512    0.967537153660585     999.999999999982    0.999999999982277     967.569616506907    0.999999999998153 -8.74592842592392e-08 1
0.5725     952.626672710955   0.0473733272881365     952.674046036255    0.952626672710973     999.999999999981    0.999999999981197     952.674046038243    0.999999999997913 -9.30299393075984e-08 1
0.5775     927.621191590118   0.0723788084084264     927.693570396819    0.927621191590136      999.99999999998    0.999999999980141     927.693570398526     0.99999999999816 -9.63723323366139e-08 1
0.5825     882.922900198203    0.117077099799407     883.039977297281    0.882922900198222     999.999999999979    0.999999999979748     883.039977298003    0.999999999999182 -1.01942987384973e-07 1
0.5875     807.324186519416    0.192675813476643     807.516862333284    0.807324186519431     999.999999999982    0.999999999979623     807.516862332893     1.00000000000048 -8.80163497640751e-08 1
0.5925     699.393869218365    0.300606130775419     699.694475349302     0.69939386921838     999.999999999979    0.999999999979372     699.694475349141     1.00000000000023 -1.01942987384973e-07 1
0.5975     568.897125527715    0.431102874463448     569.328228402814     0.56889712552773     999.999999999974    0.999999999979535     569.328228402178     1.00000000000112 -1.27568000607425e-07 1
0.6025     430.553793582768    0.569446206406202     431.123239789473    0.430553793582783     999.999999999963    0.999999999980657     431.123239789174     1.00000000000069 -9.47794731587237e-08 1
0.6075     300.287839411096    0.699712160575102     300.987551570671    0.300287839411115     999.999999999936    0.999999999980303     300.987551571671    0.999999999996677 -9.65159507870794e-08 1
0.6125      192.63198913794    0.807368010845913     193.439357148268    0.192631989137969     999.999999999847    0.999999999980038     193.439357148786    0.999999999997324 -9.78161329712179e-08 1
0.6175     117.128579452426    0.882871420529681     118.011450872956    0.117128579452423     1000.00000000002     0.99999999997973     118.011450872955                    1 -9.93224946732596e-08 1
0.6225     72.4027606897774    0.927597239291306      73.330357929116   0.0724027606897687     1000.00000000012    0.999999999979597     73.3303579290687     1.00000000000065 -9.99725857653289e-08 1
0.6275     47.4150131628253    0.952584986817731     48.3675981495995   0.0474150131628715     999.999999999024    0.999999999979638      48.367598149643      0.9999999999991 -9.97761984145029e-08 1
0.6325     32.5405806120387    0.967459419368243     33.5080400312997   0.0325405806120536     999.999999999544    0.999999999979634      33.508040031407    0.999999999996799 -9.97925186929649e-08 1
0.6375     22.8745076883253    0.977125492291811     23.8516331804893    0.022874507688318     1000.00000000032    0.999999999979664     23.8516331806171    0.999999999994642 -9.9645636186807e-08 1
0.6425       16.06976161907    0.983930238360993     17.0536918573146   0.0160697616190507      1000.0000000012    0.999999999979718      17.053691857431    0.999999999993171 -9.93839677221331e-08 1
0.6475     11.0311827423597    0.988968817237659     12.0201515595104   0.0110311827424058     999.999999995821    0.999999999979842     12.0201515595974    0.999999999992761 -9.87741333169367e-08 1
0.6525     7.27619772928963    0.992723802250716     8.26892153147865  0.00727619772924694     1000.00000000587    0.999999999979816     8.26892153154035    0.999999999992538 -9.89003434703761e-08 1
0.6575     4.57135943986546    0.995428640540134     5.56678808036171   0.0045713594398071     1000.00000001277    0.999999999979849     5.56678808040559    0.999999999992117 -9.87382287043204e-08 1
0.6625     2.73258317295807    0.997267416807027     3.72985058973872  0.00273258317295928     999.999999999555    0.999999999979931     3.72985058976509    0.999999999992928 -9.83372938634375e-08 1
0.6675      1.5576674149238    0.998442332565048     2.55610974747449  0.00155766741489813     1000.00000001648    0.999999999979915     2.55610974748885    0.999999999994382 -9.8415087190773e-08 1
0.6725    0.846968659204653    0.999153031320764     1.84612169051673 0.000846968659178763     1000.00000003057    0.999999999979926     1.84612169052542    0.999999999995294 -9.83644943275408e-08 1
0.6775    0.439414689990098    0.999560585289982     1.43897527527401  0.00043941468999138     999.999999997084    0.999999999979965     1.43897527528008    0.999999999995779 -9.81708270231252e-08 1
0.6825    0.220940170142174    0.999779059809837     1.22071922994902 0.000220940170091812     1000.00000022795    0.999999999979924     1.22071922995201    0.999999999997552 -9.83715664482077e-08 1
0.6875    0.115146892667664    0.999884853087299     1.11503174575401  0.00011514689269877     999.999999729857    0.999999999979995     1.11503174575496    0.999999999999148 -9.80223124891211e-08 1
0.6925   0.0722844851948316    0.999927715494768     1.07221220069043 7.22844852149056e-05     999.999999722292    0.999999999979981      1.0722122006896     1.00000000000077 -9.80924896865076e-08 1
0.6975    0.060917094305339    0.999939082885643     1.06085617719251 6.09170942940636e-05     1000.00000018509    0.999999999979936     1.06085617719098     1.00000000000144 -9.83122694364624e-08 1
0.7025   0.0620660046902837    0.999937933975277     1.06200393866851  6.2066004707827e-05     999.999999717344    0.999999999979983     1.06200393866556     1.00000000000278 -9.80821535101484e-08 1
0.7075   0.0651132655740907    0.999934886714435     1.06504815229161 6.51132655628126e-05     1000.00000017321    0.999999999979996     1.06504815228853     1.00000000000289 -9.80195924427107e-08 1
0.7125   0.0649437258260825     0.99993505625418     1.06487878208337 6.49437257957023e-05     1000.00000046779    0.999999999979974     1.06487878208026     1.00000000000292 -9.81278502898419e-08 1
0.7175   0.0599604055946852    0.999940039574404     1.05990044517298  5.9960405628577e-05     999.999999434764    0.999999999980031     1.05990044516909     1.00000000000367 -9.78476855095778e-08 1
0.7225   0.0506961639251907    0.999949303816079     1.05064546774735 5.06961639334451e-05      999.99999983718    0.999999999980012     1.05064546774127     1.00000000000578 -9.79428871339394e-08 1
0.7275   0.0388150910707169    0.999961184888931     1.03877627596675 3.88150911177745e-05     999.999998787645    0.999999999980048     1.03877627595965     1.00000000000684 -9.77633640708575e-08 1
0.7325   0.0263758956610761    0.999973624084325     1.02634951975433 2.63758956897117e-05     999.999998914325    0.999999999980014      1.0263495197454      1.0000000000087 -9.79320069482981e-08 1
0.7375   0.0152983976473763    0.999984701582333     1.01528309924176 1.52983976417073e-05     1000.00000037056    0.999999999979974     1.01528309922971     1.00000000001187 -9.81273062805599e-08 1
0.7425  0.00699401677030856    0.999993005963207      1.0069870227463 6.99401671575093e-06     1000.00000780061    0.999999999979923     1.00698702273352      1.0000000000127 -9.83775505503104e-08 1
0.7475  0.00209826563278264    0.999997901714355     1.00209616735976 2.09826557920248e-06     1000.00002553545    0.999999999979934     1.00209616734714      1.0000000000126  -9.832478164995e-08 1