TITLE=FVSolution
VARIABLES=X RHO1Z1 RHO2Z2 RHOU Z1 RHO1 RHO2 RHO U PRE theta
ZONE T=TA
0.0025 9.99996373177593e-06    0.999999989979692     1.00000998994374 1.00000286286786e-08     999.993510328311    0.999999999979721     1.00000998994342     1.00000000000031 -9.93676474436711e-08 1
0.0075 9.99996357461168e-06    0.999999989979693     1.00000998994184 9.99993359576377e-09      1000.0029979047    0.999999999979627     1.00000998994327    0.999999999998569 -9.98300553334275e-08 1
0.0125 9.99996482034252e-06    0.999999989979675     1.00000998994307 1.00000286286788e-08     999.993619184642    0.999999999979703      1.0000099899445    0.999999999998579 -9.94536009102376e-08 1
0.0175 9.99996436368264e-06    0.999999989979726     1.00000998994687 1.00000286286783e-08     999.993573518835    0.999999999979755     1.00000998994409     1.00000000000278 -9.9202812631205e-08 1
0.0225 9.99988530086003e-06    0.999999989979783     1.00000998986599 9.99993359576287e-09     999.995170477646    0.999999999979716     1.00000998986508     1.00000000000091 -9.93899518242358e-08 1
0.0275 9.99982518989986e-06     0.99999998997991     1.00000998980831 9.99983856284677e-09      999.99866268372    0.999999999979748      1.0000099898051     1.00000000000321 -9.92327331417187e-08 1
0.0325 9.99972730038483e-06    0.999999989980008     1.00000998970652 9.99974352993096e-09     999.998377003762    0.999999999979751     1.00000998970731     0.99999999999921 -9.9219132909667e-08 1
0.0375 9.99968192828806e-06        0.99999998998     1.00000998966464 9.99974352993104e-09     999.993839677708    0.999999999979743     1.00000998966193     1.00000000000272 -9.92572135594116e-08 1
0.0425 9.99973027706517e-06    0.999999989979974     1.00000998971199  9.9997435299313e-09     999.998674679396    0.999999999979718     1.00000998971025     1.00000000000174 -9.93839677221331e-08 1
0.0475 9.99996218844018e-06    0.999999989979772     1.00000998994351 9.99993359576297e-09     1000.00285928671    0.999999999979706     1.00000998994196     1.00000000000155 -9.94416327060321e-08 1
0.0525 1.00002969245366e-05    0.999999989979373     1.00000999027402 1.00003137274263e-08     999.998319763741    0.999999999979687      1.0000099902763     0.99999999999772 -9.95357463118296e-08 1
0.0575 1.00007775454642e-05    0.999999989978923     1.00000999075887 1.00007888920049e-08     999.998865435428    0.999999999979712     1.00000999075647      1.0000000000024 -9.94122562048005e-08 1
0.0625  1.0001224593972e-05    0.999999989978513     1.00000999120594 1.00012640565832e-08      999.99605423765    0.999999999979777     1.00000999120311     1.00000000000283 -9.90929227562276e-08 1
0.0675 1.00014603675894e-05    0.999999989978239     1.00000999143879 1.00014541224156e-08     1000.00062442658    0.999999999979693     1.00000999143861     1.00000000000018 -9.95025617456236e-08 1
0.0725  1.0001278191076e-05    0.999999989978394     1.00000999125244 1.00012640565844e-08     1000.00141327052    0.999999999979658     1.00000999125659    0.999999999995858 -9.96750126880386e-08 1
0.0775 1.00005114998129e-05    0.999999989979111     1.00000999048766 1.00005037932586e-08     1000.00077061661    0.999999999979615     1.00000999049061    0.999999999997051 -9.98866322987624e-08 1
0.0825 9.99915852212024e-06    0.999999989980492     1.00000998913809 9.99917333243715e-09     999.998518845867    0.999999999979665     1.00000998913901    0.999999999999077 -9.96412841125505e-08 1
0.0875 9.99741090071429e-06    0.999999989982332     1.00000998739301 9.99736770703701e-09     1000.00432050501      0.9999999999797     1.00000998739323    0.999999999999774 -9.94720972258278e-08 1
0.0925 9.99570410803763e-06    0.999999989984012     1.00000998569092 9.99575214746812e-09      999.99519401544    0.999999999979764     1.00000998568812      1.0000000000028 -9.91565718422294e-08 1
0.0975 9.99470126198226e-06    0.999999989984984     1.00000998469113 9.99470678539528e-09     999.999447366177    0.999999999979691     1.00000998468625     1.00000000000489 -9.95150739591111e-08 1
0.1025 9.99508637027065e-06    0.999999989984633     1.00000998506915 9.99508691705811e-09     999.999945294377     0.99999999997972       1.000009985071    0.999999999998148 -9.93736315457738e-08 1
0.1075  9.9973016311812e-06    0.999999989982365     1.00000998728063 9.99727267412184e-09      1000.0028964959    0.999999999979638       1.000009987284     0.99999999999663 -9.97745663866567e-08 1
0.1125 1.00014167226877e-05    0.999999989978315     1.00000999139148    1.00013590895e-08     1000.00576253559    0.999999999979674     1.00000999139504    0.999999999996447 -9.95977633699852e-08 1
0.1175 1.00068447587987e-05    0.999999989972944     1.00000999681482 1.00068709986138e-08     999.997377820193    0.999999999979815      1.0000099968177    0.999999999997113 -9.8907415591043e-08 1
0.1225 1.00123150812701e-05    0.999999989967464     1.00001000228231 1.00122878748138e-08     1000.00271730664    0.999999999979752     1.00001000228255    0.999999999999764 -9.92147808354105e-08 1
0.1275 1.00160812897429e-05    0.999999989963692     1.00001000604422 1.00160891914447e-08     999.999211099102    0.999999999979781     1.00001000604498     0.99999999999924 -9.90744264406374e-08 1
0.1325 1.00163185665924e-05    0.999999989963427     1.00001000628129 1.00163742901918e-08     999.994436749491    0.999999999979801     1.00001000628199    0.999999999999296 -9.89748727420192e-08 1
0.1375 1.00117013914388e-05    0.999999989968043     1.00001000166733  1.0011717677319e-08     999.998373318074    0.999999999979761     1.00001000166943    0.999999999997899 -9.91712600928452e-08 1
0.1425  1.0001973843184e-05     0.99999998997781     1.00000999195159 1.00020243199088e-08     999.994953349121    0.999999999979835     1.00000999195165    0.999999999999937 -9.88094939202711e-08 1
0.1475 9.98828903390289e-06    0.999999989991554     1.00000997827839 9.98824454712123e-09     1000.00445391394    0.999999999979799     1.00000997828059    0.999999999997804 -9.89868409462247e-08 1
0.1525 9.97323241068651e-06    0.999999990006582     1.00000996323483 9.97322934642802e-09     1000.00030724837    0.999999999979811     1.00000996323899    0.999999999995837 -9.89264559159153e-08 1
0.1575 9.96055231369804e-06    0.999999990019258     1.00000995056971 9.96058996862904e-09     999.996219608364    0.999999999979848     1.00000995057157    0.999999999998133 -9.8743124787859e-08 1
0.1625  9.9543310870684e-06    0.999999990025519     1.00000994435417 9.95441282910257e-09     999.991788362049    0.999999999979932     1.00000994435661    0.999999999997563 -9.8333485798463e-08 1
0.1675 9.95782398670552e-06    0.999999990022041     1.00000994784361 9.95783401407119e-09     999.998993017391    0.999999999979875     1.00000994784603    0.999999999997584 -9.86131065694451e-08 1
0.1725 9.97213112622142e-06    0.999999990007695     1.00000996213378 9.97208895143894e-09     1000.00422928262    0.999999999979784     1.00000996213882    0.999999999994958 -9.90581061621754e-08 1
0.1775 9.99613744797695e-06    0.999999989983687     1.00000998611444 9.99613227913068e-09     1000.00051708462    0.999999999979819     1.00000998612113    0.999999999993303 -9.88867432383245e-08 1
0.1825 1.00277099129321e-05    0.999999989952126     1.00001001765705 1.00276832071694e-08     1000.00266320367    0.999999999979809     1.00001001766204    0.999999999995012 -9.89362480829925e-08 1
0.1875 1.00644631400623e-05    0.999999989915407     1.00001005437423 1.00644609455753e-08     1000.00021804317    0.999999999979868     1.00001005437855    0.999999999995684 -9.8645203117087e-08 1
0.1925 1.01025272323985e-05    0.999999989877387     1.00001009240003  1.0102474111887e-08     1000.00525816854    0.999999999979861     1.00001009240462    0.999999999995413 -9.86821957482675e-08 1
0.1975 1.01370017380423e-05    0.999999989842909     1.00001012684029 1.01369710603146e-08     1000.00302632093     0.99999999997988     1.00001012684465    0.999999999995641 -9.8587538133188e-08 1
0.2025 1.01684648949933e-05     0.99999998981144     1.00001015827005 1.01684269554375e-08     1000.00373111357    0.999999999979867     1.00001015827634    0.999999999993713 -9.86511872191898e-08 1
0.2075 1.02072780275586e-05    0.999999989772635     1.00001019704474 1.02072954179905e-08      999.99829627426     0.99999999997993     1.00001019705066    0.999999999994079 -9.8341645937694e-08 1
0.2125 1.02615195562966e-05    0.999999989718409     1.00001025123225 1.02614641799851e-08     1000.00539653118    0.999999999979873     1.00001025123796    0.999999999994288 -9.86228987365223e-08 1
0.2175 1.03211502481705e-05    0.999999989658792     1.00001031080352 1.03211448510937e-08     1000.00052291455    0.999999999979937     1.00001031080904    0.999999999994477 -9.8308461371488e-08 1
0.2225 1.03743427923343e-05    0.999999989605602     1.00001036394292 1.03743632839296e-08     999.998024785257    0.999999999979965     1.00001036394839    0.999999999994525 -9.81702830138431e-08 1
0.2275 1.04524415625526e-05    0.999999989527525     1.00001044196522 1.04523853077847e-08     1000.00538200288    0.999999999979911     1.00001044196909     0.99999999999613 -9.84379355806198e-08 1
0.2325 1.06809234100974e-05    0.999999989299073     1.00001067021967 1.06809394702321e-08     999.998496374334    0.999999999980012     1.00001067022248    0.999999999997191 -9.79390790689649e-08 1
0.2375 1.13477543062432e-05    0.999999988632249     1.00001133638391 1.13477854402531e-08      999.99725638011    0.999999999980034     1.00001133638656    0.999999999997356 -9.78313652311158e-08 1
0.2425 1.52932696018818e-05    0.999999984686744     1.00001527795413 1.52932670046496e-08     1000.00016982847    0.999999999980011     1.00001527795635     0.99999999999778 -9.79461511896318e-08 1
0.2475 3.12872745464303e-05    0.999999968692739      1.0000312559657 3.12873067302524e-08     999.998971345715    0.999999999980046     1.00003125596729    0.999999999998417 -9.77769643029092e-08 1
0.2525 6.46983796038454e-05    0.999999935281639     1.00006463365783 6.46984090623335e-08      999.99954467987    0.999999999980049     1.00006463366124    0.999999999996585 -9.77622760522934e-08 1
0.2575  0.00011621005522045    0.999999883769939     1.00011609381957 1.16210050731182e-07     1000.00003863063     0.99999999997999     1.00011609382516    0.999999999994409 -9.80484249346603e-08 1
0.2625 0.000183934025711849    0.999999816045943      1.0001837500656 1.83934022733179e-07     1000.00001619423    0.999999999979965     1.00018375007165    0.999999999993947 -9.81702830138431e-08 1
0.2675 0.000265553553940206    0.999999734426405     1.00026528797137 2.65553612647449e-07     999.999778925083    0.999999999980018     1.00026528798035    0.999999999991031 -9.79124226141437e-08 1
0.2725 0.000361148415224119    0.999999638831548     1.00036078723663 3.61148363024561e-07     1000.00014453771    0.999999999979911     1.00036078724677    0.999999999989862 -9.84346715249274e-08 1
0.2775 0.000478024548598557    0.999999521955456     1.00047754649705 4.78024594495296e-07     999.999903986659    0.999999999980051     1.00047754650405    0.999999999992994 -9.77503078480879e-08 1
0.2825  0.00064101742786827    0.999999358962625     1.00064037638566 6.41017449006135e-07      999.99996702451    0.999999999980074     1.00064037639049    0.999999999995169 -9.76371539174181e-08 1
0.2875   0.0011428496852472    0.999998857130412     1.00114170681283 1.14284968956234e-06     999.999996224232    0.999999999980101     1.00114170681566    0.999999999997177 -9.75033276340298e-08 1
0.2925  0.00283278081731901    0.999997167199286     1.00282994801398 2.83278087729848e-06     999.999978826646    0.999999999980163      1.0028299480166    0.999999999997385 -9.72019464917651e-08 1
0.2975  0.00613792042113089     0.99999386205966     1.00613178247635 6.13792039162122e-06     1000.00000480776    0.999999999980052     1.00613178248079    0.999999999995582 -9.77464997831134e-08 1
0.3025   0.0109105063086409    0.999989089473732     1.01089959577427 1.09105063034309e-05     1000.00000047752    0.999999999980035     1.01089959578237    0.999999999991988 -9.78264691475772e-08 1
0.3075   0.0171039577429203    0.999982896022262     1.01708685375488 1.71039577538943e-05     999.999999358397    0.999999999980016     1.01708685376518    0.999999999989873 -9.79238468090671e-08 1
0.3125   0.0253311326873497    0.999974668847353     1.02530580152594 2.53311327036428e-05     999.999999356793    0.999999999980056      1.0253058015347    0.999999999991456 -9.7726371439677e-08 1
0.3175   0.0364328634484502    0.999963567116644     1.03639643055873 3.64328634799382e-05     999.999999135725    0.999999999980123     1.03639643056509    0.999999999993856 -9.73977898333089e-08 1
0.3225   0.0508812832438447    0.999949118696886     1.05083040193598 5.08812833017278e-05     999.999998862387    0.999999999980186     1.05083040194073     0.99999999999548 -9.7086616523967e-08 1
0.3275    0.127558687632978    0.999872441292461     1.12743112891759 0.000127558687666343     999.999999738429    0.999999999980125     1.12743112892544    0.999999999993038 -9.73874536569497e-08 1
0.3325    0.496725027574271    0.999503274952463     1.49622830251188 0.000496725027592387     999.999999963528    0.999999999980046     1.49622830252673    0.999999999990071 -9.7775876284345e-08 1
0.3375     1.35536253604675    0.998644637443997     2.35400717346422  0.00135536253607059     999.999999982409    0.999999999980041     2.35400717349074    0.999999999988733 -9.77998126927559e-08 1
0.3425     2.80156165258559     0.99719843832756     3.79876009088526  0.00280156165252959     1000.00000001999    0.999999999980033     3.79876009091315     0.99999999999266 -9.78362613146544e-08 1
0.3475     4.82525351004589    0.995174746470201     5.82042825648548   0.0048252535100123     1000.00000000696    0.999999999980117     5.82042825651609    0.999999999994741 -9.74260783159764e-08 1
0.3525     7.33173529649555      0.9926682646838     8.32440356113915  0.00733173529651038     999.999999997978    0.999999999980165     8.32440356117935    0.999999999995171 -9.71921543246879e-08 1
0.3575      10.183695384165    0.989816304596232     11.1735116887221   0.0101836953841609      1000.0000000004    0.999999999980191     11.1735116887612    0.999999999996505 -9.70648561526843e-08 1
0.3625     13.3255536715946    0.986674446308919     14.3122281178694   0.0133255536716246     999.999999997751    0.999999999980281     14.3122281179036    0.999999999997612 -9.66220325970824e-08 1
0.3675     17.0225636912239    0.982977436289386     18.0055411274731   0.0170225636912443     999.999999998802    0.999999999980295     18.0055411275133     0.99999999999777 -9.65529434182599e-08 1
0.3725     22.1936981535915    0.977806301827163     23.1715044553736   0.0221936981536396     999.999999997835    0.999999999980367     23.1715044554187    0.999999999998052 -9.62036894591733e-08 1
0.3775      31.245693946107    0.968754306034876     32.2144482520887   0.0312456939461102     999.999999999898    0.999999999980373     32.2144482521419     0.99999999999835 -9.61710489022494e-08 1
0.3825     49.7691044717214    0.950230895509545      50.719335367119   0.0497691044717269     999.999999999891    0.999999999980291      50.719335367231    0.999999999997792 -9.65757918081067e-08 1
0.3875     86.0167922879364    0.913983207693905     86.9307754955043   0.0860167922879693     999.999999999617    0.999999999980168     86.9307754956303    0.999999999998551  -9.717692206479e-08 1
0.3925     160.024834238811    0.839975165744373     160.864809404719    0.160024834238819      999.99999999995     0.99999999997999     160.864809404555     1.00000000000102 -9.80489689439423e-08 1
0.3975     342.927710425099    0.657072289561255     343.584782715338    0.342927710425095     1000.00000000001    0.999999999979227      343.58478271466     1.00000000000197 -1.01787400730302e-07 1
0.4025     649.823288068491    0.350176711923954     650.173464782304    0.649823288068501     999.999999999985    0.999999999978454     650.173464780415     1.00000000000291 -7.57609086576849e-08 1
0.4075     845.008276512454    0.154991723484319     845.163268238135    0.845008276512472     999.999999999979    0.999999999979296     845.163268235939      1.0000000000026 -1.04171249404317e-07 1
0.4125     917.622691372163   0.0823773086262324     917.705068682841     0.91762269137218     999.999999999981    0.999999999980732     917.705068680789     1.00000000000224 -9.47011358221062e-08 1
0.4175     951.656763449623   0.0483432365494756     951.705106688095    0.951656763449641     999.999999999981    0.999999999981722     951.705106686173     1.00000000000202 -9.08016772882547e-08 1
0.4225      968.65464180767     0.03134535819175     968.685987167638    0.968654641807687     999.999999999982    0.999999999982052     968.685987165862     1.00000000000183 -8.74592842592392e-08 1
0.4275     976.903973056536    0.023096026943032     976.927069085047    0.976903973056553     999.999999999982    0.999999999982049     976.927069083479     1.00000000000161 -8.8573415268911e-08 1
0.4325     981.894763874368   0.0181052361252865       981.9128691118    0.981894763874385     999.999999999982    0.999999999981879     981.912869110493     1.00000000000133 -8.8573415268911e-08 1
0.4375      985.90806117239   0.0140919388273359     985.922153112266    0.985908061172408     999.999999999982    0.999999999981811     985.922153111217     1.00000000000106 -8.96875462785829e-08 1
0.4425     989.526084655104   0.0104739153446867     989.536558571275    0.989526084655122     999.999999999982    0.999999999981769     989.536558570449     1.00000000000083 -9.02446117834188e-08 1
0.4475     992.781952175483  0.00721804782436937     992.789170223985      0.9927819521755     999.999999999982    0.999999999981968     992.789170223307     1.00000000000068 -8.80163497640751e-08 1
0.4525     995.518976796057  0.00448102320384547     995.523457819854    0.995518976796074     999.999999999982    0.999999999982136     995.523457819261      1.0000000000006 -8.57880877447315e-08 1
0.4575     997.575762101841  0.00242423789810052     997.578186340202    0.997575762101858     999.999999999983    0.999999999982956     997.578186339739     1.00000000000046 -8.41168912302237e-08 1
0.4625      998.89092845399  0.00110907154597507     998.892037525853    0.998890928454007     999.999999999984    0.999999999983588     998.892037525536     1.00000000000032 -8.02174326963723e-08 1
0.4675     999.533968120199 0.000466031879776426     999.534434152344    0.999533968120216     999.999999999984     0.99999999998327     999.534434152079     1.00000000000027 -8.07744982012082e-08 1
0.4725     999.717627355269 0.000282372644708712     999.717909728133    0.999717627355287     999.999999999983    0.999999999983312     999.717909727914     1.00000000000022 -8.41168912302237e-08 1
0.4775      999.77088074748 0.000229119252499737     999.771109866861    0.999770880747497     999.999999999983    0.999999999983739     999.771109866732     1.00000000000013 -8.13315637060441e-08 1
0.4825     999.809422413027  0.00019057758695268     999.809612990684    0.999809422413044     999.999999999983    0.999999999983405     999.809612990614     1.00000000000007 -8.24456947157159e-08 1
0.4875     999.842788493908 0.000157211506072808     999.842945705401    0.999842788493925     999.999999999984    0.999999999984254     999.842945705414    0.999999999999987 -8.07744982012082e-08 1
0.4925     999.873465888818  0.00012653411116367      999.87359242276    0.999873465888834     999.999999999983    0.999999999983966     999.873592422929    0.999999999999831 -8.13315637060441e-08 1
0.4975     999.901248077653 9.87519223292705e-05     999.901346829288    0.999901248077669     999.999999999984    0.999999999982512     999.901346829575    0.999999999999712 -7.96603671915364e-08 1
0.5025      999.92583877896 7.41612210219981e-05     999.925912939879    0.999925838778977     999.999999999984    0.999999999985064     999.925912940181    0.999999999999698 -8.07744982012082e-08 1
0.5075     999.947108589672  5.2891410310113e-05     999.947161480691    0.999947108589689     999.999999999983    0.999999999982053     999.947161481082    0.999999999999609 -8.35598257253878e-08 1
0.5125     999.964030463747 3.59695362359641e-05     999.964066432789    0.999964030463763     999.999999999983    0.999999999984428     999.964066433283    0.999999999999506 -8.30027602205519e-08 1
0.5175     999.974668331625 2.53316683570471e-05     999.974693662713    0.999974668331643     999.999999999982    0.999999999982208     999.974693663293     0.99999999999942 -8.57880877447315e-08 1
0.5225      999.97711527251 2.28847274724105e-05      999.97713815658    0.999977115272527     999.999999999983    0.999999999977909     999.977138157237    0.999999999999342 -8.52310222398955e-08 1
0.5275     999.909407025992  9.0592973988117e-05     999.909497618251     0.99990940702601     999.999999999982    0.999999999982276     999.909497618966    0.999999999999285 -9.02446117834188e-08 1
0.5325     999.536327644796 0.000463672355176055     999.536791316339    0.999536327644815     999.999999999981    0.999999999981267     999.536791317151    0.999999999999188 -9.30299393075984e-08 1
0.5375     998.664298143139  0.00133570185681617     998.665633844122    0.998664298143158     999.999999999981    0.999999999980864     998.665633844996    0.999999999999125 -9.30299393075984e-08 1
0.5425     997.203771792801  0.00279622820712664     997.206568020102     0.99720377179282     999.999999999981    0.999999999980774     997.206568021008    0.999999999999092 -9.35870048124343e-08 1
0.5475     995.169500975509  0.00483049902437504     995.174331473553    0.995169500975528      999.99999999998    0.999999999980003     995.174331474533    0.999999999999015 -9.74864633462857e-08 1
0.5525     992.655990448622  0.00734400955121014     992.663334457215    0.992655990448642      999.99999999998    0.999999999979874     992.663334458173    0.999999999999035 -9.86005943559576e-08 1
0.5575     989.799694218353    0.010200305781428     989.809894523285    0.989799694218373      999.99999999998    0.999999999980456     989.809894524135    0.999999999999141 -9.63723323366139e-08 1
0.5625     986.656116053569   0.0133438839461541      986.66945993667    0.986656116053588     999.999999999981    0.999999999980657     986.669459937515    0.999999999999143 -9.52582013269421e-08 1
0.5675     982.959562168516   0.0170404378311324     982.976602605385    0.982959562168536      999.99999999998    0.999999999980517     982.976602606348    0.999999999999021 -9.5815266831778e-08 1
0.5725     977.790226761263    0.022209773238287     977.812436533464    0.977790226761282     999.999999999981    0.999999999980587     977.812436534501    0.999999999998939 -9.47011358221062e-08 1
0.5775     968.740858798653   0.0312591412007159     968.772117938732    0.968740858798671      999.99999999998    0.999999999980399     968.772117939853    0.999999999998842 -9.5815266831778e-08 1
0.5825     950.221149577939   0.0497788504210522     950.270928427263    0.950221149577957      999.99999999998    0.999999999980104      950.27092842836    0.999999999998846 -9.69293978414498e-08 1
0.5875     913.978753021061    0.086021246977153     914.064774266843     0.91397875302108      999.99999999998    0.999999999979454     914.064774268038    0.999999999998692 -9.97147253656294e-08 1
0.5925     839.981294021773    0.160018705974903     840.141312726131    0.839981294021791     999.999999999979    0.999999999979339     840.141312727748    0.999999999998075 -1.04728314909153e-07 1
0.5975     657.104540040295    0.342895459952828     657.447435499256    0.657104540040311     999.999999999975    0.999999999979993     657.447435500248    0.999999999998492 -1.23111476568738e-07 1
0.6025     350.211986444759    0.649788013542523     350.861774457868    0.350211986444753     1000.00000000002     0.99999999998042     350.861774458302    0.999999999998762 -9.59441970316277e-08 1
0.6075     155.001734454997    0.844998265528157     155.846732720557    0.155001734455011      999.99999999991    0.999999999980079     155.846732720525     1.00000000000021 -9.76104974625969e-08 1
0.6125     82.3772013520705    0.917622798629438     83.2948241509043   0.0823772013520487     1000.00000000026    0.999999999979825     83.2948241506999     1.00000000000245 -9.88573667370929e-08 1
0.6175     48.3387522091505    0.951661247771543        49.2904134572   0.0483387522090902     1000.00000000125     0.99999999997965     49.2904134569221     1.00000000000564 -9.97163573934756e-08 1
0.6225     31.3386817237765    0.968661318256529      32.307343042302    0.031338681723725     1000.00000000164    0.999999999979616      32.307343042033     1.00000000000833  -9.988336824307e-08 1
0.6275     23.0888994280737    0.976911100552087      24.065810528853   0.0230888994280385     1000.00000000153    0.999999999979655     24.0658105286258     1.00000000000944 -9.96891569293723e-08 1
0.6325     18.0990013021922    0.981900998677911     19.0809023010446   0.0180990013021993     999.999999999612    0.999999999979744     19.0809023008702     1.00000000000914 -9.92550375222834e-08 1
0.6375     14.0876831410001    0.985912316839064     15.0735954579621   0.0140876831410781     999.999999994464    0.999999999979859     15.0735954578392     1.00000000000815 -9.86930759339089e-08 1
0.6425     10.4726341836329    0.989527365796423     11.4621615495095   0.0104726341836439     999.999999998941    0.999999999979856     11.4621615494293       1.000000000007 -9.87045001288323e-08 1
0.6475     7.22050200439288    0.992779497975697     8.21328150241267   0.0072205020044002     999.999999998986    0.999999999979952     8.21328150236857     1.00000000000537 -9.82344761091269e-08 1
0.6525     4.48714837264464    0.995512851607436     5.48266122427919  0.00448714837260342     1000.00000000919     0.99999999997995     5.48266122425207     1.00000000000495 -9.82453562947683e-08 1
0.6575     2.43267173341866    0.997567328246615     3.43023906168229  0.00243267173342029     999.999999999327    0.999999999979987     3.43023906166527     1.00000000000496 -9.80642012038402e-08 1
0.6625     1.11724313672092     0.99888275684335     2.11612589356918  0.00111724313673871     999.999999984082    0.999999999980067     2.11612589356427     1.00000000000232 -9.76725145207524e-08 1
0.6675    0.470916711146632    0.999529083268948     1.47044579441529 0.000470916711145469     1000.00000000247    0.999999999980084     1.47044579441558    0.999999999999805 -9.75892811005963e-08 1
0.6725    0.282203191282242    0.999717796788804     1.28192098806991 0.000282203191326724     999.999999842378    0.999999999980126     1.28192098807105    0.999999999999114 -9.73847336105393e-08 1
0.6775    0.223877655993835    0.999776122324099     1.22365377831493  0.00022387765604991     999.999999749526    0.999999999980145     1.22365377831793    0.999999999997548 -9.7291708023306e-08 1
0.6825     0.17972338892129    0.999820276591173     1.17954366550955 0.000179723388975139     999.999999700375    0.999999999980145     1.17954366551246    0.999999999997528 -9.72906200047419e-08 1
0.6875    0.139999143650194    0.999860000836451     1.13985914448378  0.00013999914361101     1000.00000027989    0.999999999980059     1.13985914448664    0.999999999997482 -9.77111391797791e-08 1
0.6925    0.102517710729243    0.999897482269345     1.10241519299703 0.000102517710696595     1000.00000031846    0.999999999980039     1.10241519299859    0.999999999998591 -9.78079728319869e-08 1
0.6975   0.0686825956677344    0.999931317384392     1.06861391304998 6.86825956326698e-05     1000.00000051053    0.999999999980023     1.06861391305213    0.999999999997995 -9.78857661593224e-08 1
0.7025   0.0408752836823458    0.999959124696385     1.04083440837425 4.08752836599284e-05     1000.00000054843    0.999999999980045     1.04083440837873    0.999999999995697 -9.77813163771657e-08 1
0.7075   0.0208454163503054    0.999979154563743     1.02082457090743 2.08454163825215e-05     999.999998454524    0.999999999980125     1.02082457091405     0.99999999999352 -9.73890856847959e-08 1
0.7125  0.00885991430489078    0.999991140065792     1.00885105436242 8.85991427152766e-06     1000.00000376563    0.999999999980063     1.00885105437068    0.999999999991812 -9.76899228177786e-08 1
0.7175  0.00348670607085838    0.999996513274028     1.00348321933597 3.48670607705752e-06     999.999998222066    0.999999999980105     1.00348321934489    0.999999999991113 -9.74837432998754e-08 1
0.7225  0.00211259703776289    0.999997887383051     1.00211048441088 2.11259701806625e-06     1000.00000932342    0.999999999980069     1.00211048442081    0.999999999990088 -9.7660546316547e-08 1
0.7275  0.00168326854699472    0.999998316711509     1.00168158524866 1.68326852504408e-06     1000.00001304049    0.999999999980034      1.0016815852585    0.999999999990168 -9.78313652311158e-08 1
0.7325  0.00130542364048353    0.999998694556396     1.00130411818712 1.30542363898052e-06     1000.00000115136    0.999999999980035     1.00130411819688    0.999999999990252 -9.78264691475772e-08 1
0.7375 0.000960084465829693    0.999999039895559     1.00095912435263 9.60084476660414e-07     999.999988718991    0.999999999980035     1.00095912436139     0.99999999999125 -9.78264691475772e-08 1
0.7425 0.000654470899939901    0.999999345509128     1.00065381640013 6.54470878761346e-07     1000.00003235981    0.999999999980006     1.00065381640907    0.999999999991067 -9.79689995794786e-08 1
0.7475 0.000402146147939637    0.999999597833877     1.00040174397277 4.02146133089076e-07     1000.00003692827     0.99999999998001     1.00040174398182    0.999999999990958 -9.79526793010166e-08 1