TITLE=FVSolution
VARIABLES=X lambda badcell
ZONE T=TA
0.0015625 4.81888e-05 0
0.0046875 4.81854e-05 0
0.0078125 4.81847e-05 0
0.0109375 4.8189e-05 0
0.0140625 4.81877e-05 0
0.0171875 4.8187e-05 0
0.0203125 4.81832e-05 0
0.0234375 4.81879e-05 0
0.0265625 4.81885e-05 0
0.0296875 4.81878e-05 0
0.0328125 4.81859e-05 0
0.0359375 4.81843e-05 0
0.0390625 4.81887e-05 0
0.0421875 4.8186e-05 0
0.0453125 4.81894e-05 0
0.0484375 4.8184e-05 0
0.0515625 4.81848e-05 0
0.0546875 4.819e-05 0
0.0578125 4.81893e-05 0
0.0609375 4.81835e-05 0
0.0640625 4.81842e-05 0
0.0671875 4.81892e-05 0
0.0703125 4.81883e-05 0
0.0734375 4.81872e-05 0
0.0765625 4.81842e-05 0
0.0796875 4.81866e-05 0
0.0828125 4.81869e-05 0
0.0859375 4.81891e-05 0
0.0890625 4.81873e-05 0
0.0921875 4.81834e-05 0
0.0953125 4.81859e-05 0
0.0984375 4.81886e-05 0
0.101562 4.81906e-05 0
0.104688 4.81847e-05 0
0.107813 4.81837e-05 0
0.110938 4.81851e-05 0
0.114063 4.81915e-05 0
0.117188 4.81878e-05 0
0.120313 4.81868e-05 0
0.123438 4.81813e-05 0
0.126563 4.81892e-05 0
0.129688 4.81859e-05 0
0.132812 4.81918e-05 0
0.135938 4.81866e-05 0
0.139063 4.81824e-05 0
0.142188 4.81822e-05 0
0.145313 4.81923e-05 0
0.148438 4.81932e-05 0
0.151563 4.81831e-05 0
0.154688 4.81831e-05 0
0.157813 4.81829e-05 0
0.160938 4.81896e-05 0
0.164062 4.81929e-05 0
0.167188 4.81892e-05 0
0.170313 4.81825e-05 0
0.173438 4.8179e-05 0
0.176563 4.81845e-05 0
0.179688 4.81967e-05 0
0.182813 4.81937e-05 0
0.185938 4.81867e-05 0
0.189063 4.81719e-05 0
0.192188 4.8183e-05 0
0.195312 4.81894e-05 0
0.198438 4.81995e-05 0
0.201563 4.81958e-05 0
0.204688 4.81841e-05 0
0.207813 4.81695e-05 0
0.210938 4.81655e-05 0
0.214063 4.81957e-05 0
0.217188 4.82207e-05 0
0.220313 4.8202e-05 0
0.223438 4.81873e-05 0
0.226562 4.8145e-05 0
0.229688 4.81465e-05 0
0.232813 4.8164e-05 0
0.235938 4.82469e-05 0
0.239063 4.83115e-05 0
0.242188 4.8251e-05 0
0.245313 4.80566e-05 0
0.248438 4.75056e-05 0
0.251563 5.0942e-05 0
0.254687 4.77901e-05 0
0.257812 4.81131e-05 0
0.260937 4.81915e-05 0
0.264062 4.81997e-05 0
0.267188 4.81892e-05 0
0.270312 4.82036e-05 0
0.273438 4.81835e-05 0
0.276562 4.81781e-05 0
0.279687 4.81908e-05 0
0.282813 4.81884e-05 0
0.285937 4.81856e-05 0
0.289062 4.81835e-05 0
0.292188 4.81894e-05 0
0.295312 4.81891e-05 0
0.298438 4.8184e-05 0
0.301562 4.81856e-05 0
0.304688 4.81893e-05 0
0.307813 4.81861e-05 0
0.310937 4.8188e-05 0
0.314063 4.81834e-05 0
0.317187 4.81894e-05 0
0.320312 4.81875e-05 0
0.323438 4.8186e-05 0
0.326562 4.81838e-05 0
0.329688 4.81898e-05 0
0.332812 4.81886e-05 0
0.335938 4.81836e-05 0
0.339063 4.81849e-05 0
0.342187 4.81937e-05 0
0.345313 4.81805e-05 0
0.348437 4.81908e-05 0
0.351562 4.81829e-05 0
0.354688 4.81887e-05 0
0.357812 4.81888e-05 0
0.360938 4.81842e-05 0
0.364062 4.81861e-05 0
0.367188 4.81896e-05 0
0.370313 4.81859e-05 0
0.373437 4.8185e-05 0
0.376563 4.81886e-05 0
0.379687 4.81851e-05 0
0.382812 4.81905e-05 0
0.385938 4.81834e-05 0
0.389062 4.81868e-05 0
0.392188 4.81873e-05 0
0.395312 4.81883e-05 0
0.398438 4.81863e-05 0
0.401563 4.8183e-05 0
0.404687 4.81905e-05 0
0.407813 4.81878e-05 0
0.410937 4.81844e-05 0
0.414062 4.8187e-05 0
0.417188 4.81872e-05 0
0.420312 4.81873e-05 0
0.423438 4.81862e-05 0
0.426562 4.81862e-05 0
0.429688 4.81875e-05 0
0.432813 4.8187e-05 0
0.435937 4.81882e-05 0
0.439063 4.8183e-05 0
0.442187 4.81882e-05 0
0.445312 4.81877e-05 0
0.448438 4.81873e-05 0
0.451562 4.81873e-05 0
0.454688 4.8184e-05 0
0.457812 4.8188e-05 0
0.460938 4.81887e-05 0
0.464063 4.81847e-05 0
0.467187 4.81848e-05 0
0.470313 4.81911e-05 0
0.473437 4.81846e-05 0
0.476562 4.81883e-05 0
0.479688 4.81843e-05 0
0.482812 4.81878e-05 0
0.485938 4.81876e-05 0
0.489062 4.81873e-05 0
0.492188 4.81852e-05 0
0.495312 4.81863e-05 0
0.498437 4.8188e-05 0
0.501563 4.81879e-05 0
0.504687 4.81858e-05 0
0.507812 4.81846e-05 0
0.510938 4.81886e-05 0
0.514062 4.81881e-05 0
0.517188 4.81866e-05 0
0.520312 4.8184e-05 0
0.523438 4.81884e-05 0
0.526563 4.81863e-05 0
0.529687 4.81899e-05 0
0.532813 4.81831e-05 0
0.535937 4.81873e-05 0
0.539062 4.81866e-05 0
0.542188 4.81888e-05 0
0.545312 4.81855e-05 0
0.548438 4.81871e-05 0
0.551562 4.81845e-05 0
0.554688 4.81889e-05 0
0.557813 4.81899e-05 0
0.560937 4.81832e-05 0
0.564063 4.81839e-05 0
0.567187 4.81899e-05 0
0.570312 4.81878e-05 0
0.573438 4.8188e-05 0
0.576562 4.81838e-05 0
0.579688 4.81864e-05 0
0.582812 4.81868e-05 0
0.585938 4.81886e-05 0
0.589063 4.81888e-05 0
0.592188 4.81827e-05 0
0.595313 4.81862e-05 0
0.598437 4.81874e-05 0
0.601562 4.81911e-05 0
0.604688 4.81851e-05 0
0.607813 4.81832e-05 0
0.610938 4.81866e-05 0
0.614062 4.81895e-05 0
0.617188 4.81903e-05 0
0.620313 4.81829e-05 0
0.623438 4.81855e-05 0
0.626563 4.8185e-05 0
0.629687 4.819e-05 0
0.632812 4.8189e-05 0
0.635938 4.81885e-05 0
0.639063 4.81799e-05 0
0.642188 4.81846e-05 0
0.645312 4.81912e-05 0
0.648438 4.81924e-05 0
0.651563 4.81852e-05 0
0.654688 4.81809e-05 0
0.657813 4.8185e-05 0
0.660937 4.81876e-05 0
0.664062 4.81947e-05 0
0.667188 4.81867e-05 0
0.670313 4.8186e-05 0
0.673438 4.81762e-05 0
0.676562 4.81855e-05 0
0.679688 4.81976e-05 0
0.682813 4.81929e-05 0
0.685938 4.81856e-05 0
0.689063 4.81743e-05 0
0.692187 4.81812e-05 0
0.695312 4.81888e-05 0
0.698438 4.82011e-05 0
0.701563 4.81965e-05 0
0.704688 4.81812e-05 0
0.707812 4.81723e-05 0
0.710938 4.81638e-05 0
0.714063 4.81965e-05 0
0.717188 4.82216e-05 0
0.720313 4.81997e-05 0
0.723437 4.81868e-05 0
0.726562 4.81515e-05 0
0.729688 4.81377e-05 0
0.732813 4.81686e-05 0
0.735938 4.82491e-05 0
0.739062 4.8302e-05 0
0.742188 4.82707e-05 0
0.745313 4.80225e-05 0
0.748438 4.75634e-05 0
0.751563 5.30329e-05 0
0.754687 4.77696e-05 0
0.757812 4.81255e-05 0
0.760938 4.81809e-05 0
0.764063 4.82087e-05 0
0.767188 4.81819e-05 0
0.770312 4.82092e-05 0
0.773438 4.81803e-05 0
0.776563 4.81785e-05 0
0.779688 4.81914e-05 0
0.782813 4.81886e-05 0
0.785937 4.81852e-05 0
0.789062 4.81825e-05 0
0.792188 4.81927e-05 0
0.795313 4.81848e-05 0
0.798438 4.81865e-05 0
0.801562 4.81864e-05 0
0.804688 4.81859e-05 0
0.807813 4.81902e-05 0
0.810938 4.81851e-05 0
0.814063 4.81846e-05 0
0.817187 4.81889e-05 0
0.820312 4.81867e-05 0
0.823438 4.81876e-05 0
0.826563 4.81836e-05 0
0.829688 4.81884e-05 0
0.832812 4.81899e-05 0
0.835938 4.81839e-05 0
0.839063 4.8185e-05 0
0.842188 4.8189e-05 0
0.845313 4.8188e-05 0
0.848437 4.81847e-05 0
0.851562 4.8187e-05 0
0.854688 4.81868e-05 0
0.857813 4.81895e-05 0
0.860938 4.81825e-05 0
0.864062 4.8188e-05 0
0.867188 4.81887e-05 0
0.870313 4.8186e-05 0
0.873438 4.8187e-05 0
0.876563 4.8185e-05 0
0.879687 4.81878e-05 0
0.882812 4.81876e-05 0
0.885938 4.81865e-05 0
0.889063 4.81844e-05 0
0.892188 4.819e-05 0
0.895312 4.81861e-05 0
0.898438 4.8186e-05 0
0.901563 4.81855e-05 0
0.904688 4.81872e-05 0
0.907813 4.81912e-05 0
0.910937 4.81823e-05 0
0.914062 4.81874e-05 0
0.917188 4.81869e-05 0
0.920313 4.81874e-05 0
0.923438 4.81865e-05 0
0.926562 4.81871e-05 0
0.929688 4.81855e-05 0
0.932813 4.81886e-05 0
0.935938 4.81872e-05 0
0.939063 4.81844e-05 0
0.942187 4.81871e-05 0
0.945312 4.81878e-05 0
0.948438 4.81879e-05 0
0.951563 4.81851e-05 0
0.954688 4.81854e-05 0
0.957812 4.81892e-05 0
0.960938 4.81878e-05 0
0.964063 4.81843e-05 0
0.967188 4.81861e-05 0
0.970313 4.81883e-05 0
0.973437 4.81888e-05 0
0.976562 4.81835e-05 0
0.979688 4.81882e-05 0
0.982813 4.81852e-05 0
0.985938 4.81889e-05 0
0.989062 4.81867e-05 0
0.992188 4.81865e-05 0
0.995313 4.81851e-05 0
0.998438 4.81876e-05 0
