TITLE=FVSolution
VARIABLES=X lambda badcell
ZONE T=TA
0.0015625 2.48738e-79 0
0.0046875 2.45215e-79 0
0.0078125 2.38364e-79 0
0.0109375 2.28463e-79 0
0.0140625 2.15899e-79 0
0.0171875 2.01152e-79 0
0.0203125 1.84759e-79 0
0.0234375 1.67287e-79 0
0.0265625 1.49294e-79 0
0.0296875 1.31312e-79 0
0.0328125 1.13813e-79 0
0.0359375 9.71948e-80 0
0.0390625 8.17686e-80 0
0.0421875 6.77562e-80 0
0.0453125 5.52901e-80 0
0.0484375 4.44212e-80 0
0.0515625 3.51298e-80 0
0.0546875 2.73403e-80 0
0.0578125 2.09342e-80 0
0.0609375 1.57657e-80 0
0.0640625 1.16745e-80 0
0.0671875 8.49741e-81 0
0.0703125 6.07733e-81 0
0.0734375 4.26925e-81 0
0.0765625 2.94463e-81 0
0.0796875 1.99325e-81 0
0.0828125 1.32358e-81 0
0.0859375 8.61746e-82 0
0.0890625 5.49833e-82 0
0.0921875 3.43605e-82 0
0.0953125 2.1019e-82 0
0.0984375 1.25781e-82 0
0.101562 7.35822e-83 0
0.104688 4.20512e-83 0
0.107813 2.34584e-83 0
0.110938 1.27636e-83 0
0.114063 6.76739e-84 0
0.117188 3.49331e-84 0
0.120313 1.75383e-84 0
0.123438 8.55459e-85 0
0.126563 4.04902e-85 0
0.129688 1.85745e-85 0
0.132812 8.2471e-86 0
0.135938 3.53889e-86 0
0.139063 1.46532e-86 0
0.142188 5.84455e-87 0
0.145313 2.24138e-87 0
0.148438 8.24758e-88 0
0.151563 2.90554e-88 0
0.154688 9.77645e-89 0
0.157813 3.13317e-89 0
0.160938 9.53664e-90 0
0.164062 2.74797e-90 0
0.167188 7.46852e-91 0
0.170313 1.90696e-91 0
0.173438 4.55391e-92 0
0.176563 1.01208e-92 0
0.179688 2.08129e-93 0
0.182813 3.93512e-94 0
0.185938 6.79107e-95 0
0.189063 1.06083e-95 0
0.192188 1.48528e-96 0
0.195312 1.84365e-97 0
0.198438 2.00217e-98 0
0.201563 1.87409e-99 0
0.204688 1.48321e-100 0
0.207813 9.71642e-102 0
0.210938 5.1266e-103 0
0.214063 2.10733e-104 0
0.217188 6.4686e-106 0
0.220313 1.41095e-107 0
0.223438 2.03189e-109 0
0.226562 1.77262e-111 0
0.229688 8.31204e-114 0
0.232813 1.75932e-116 0
0.235938 1.34671e-119 0
0.239063 2.3359e-123 0
0.242188 6.41004e-128 0
0.245313 1.43404e-133 0
0.248438 3.45902e-141 0
0.251563 1.06519e-141 0
0.254687 1.43404e-133 0
0.257812 9.18712e-128 0
0.260937 3.23086e-123 0
0.264062 1.70521e-119 0
0.267188 2.16683e-116 0
0.270312 1.00024e-113 0
0.273438 2.07832e-111 0
0.276562 2.33948e-109 0
0.279687 1.59579e-107 0
0.282813 7.24879e-106 0
0.285937 2.33734e-104 0
0.289062 5.63865e-103 0
0.292188 1.0612e-101 0
0.295312 1.61008e-100 0
0.298438 2.02304e-99 0
0.301562 2.15095e-98 0
0.304688 1.97196e-97 0
0.307813 1.58211e-96 0
0.310937 1.12597e-95 0
0.314063 7.18492e-95 0
0.317187 4.15101e-94 0
0.320312 2.18928e-93 0
0.323438 1.062e-92 0
0.326562 4.76751e-92 0
0.329688 1.99213e-91 0
0.332812 7.78601e-91 0
0.335938 2.8594e-90 0
0.339063 9.90568e-90 0
0.342187 3.24904e-89 0
0.345313 1.01221e-88 0
0.348437 3.0039e-88 0
0.351562 8.51477e-88 0
0.354688 2.31095e-87 0
0.357812 6.01843e-87 0
0.360938 1.5071e-86 0
0.364062 3.63567e-86 0
0.367188 8.46333e-86 0
0.370313 1.90417e-85 0
0.373437 4.14673e-85 0
0.376563 8.75248e-85 0
0.379687 1.79278e-84 0
0.382812 3.56777e-84 0
0.385938 6.90575e-84 0
0.389062 1.30136e-83 0
0.392188 2.38991e-83 0
0.395312 4.28086e-83 0
0.398438 7.48512e-83 0
0.401563 1.27859e-82 0
0.404687 2.13512e-82 0
0.407813 3.48802e-82 0
0.410937 5.57782e-82 0
0.414062 8.73648e-82 0
0.417188 1.34101e-81 0
0.420312 2.01828e-81 0
0.423438 2.97985e-81 0
0.426562 4.31784e-81 0
0.429688 6.143e-81 0
0.432813 8.58447e-81 0
0.435937 1.17876e-80 0
0.439063 1.591e-80 0
0.442187 2.11149e-80 0
0.445312 2.75621e-80 0
0.448438 3.5397e-80 0
0.451562 4.47364e-80 0
0.454688 5.56555e-80 0
0.457812 6.81711e-80 0
0.460938 8.22302e-80 0
0.464063 9.76972e-80 0
0.467187 1.14349e-79 0
0.470313 1.31869e-79 0
0.473437 1.49859e-79 0
0.476562 1.67843e-79 0
0.479688 1.85291e-79 0
0.482812 2.01641e-79 0
0.485938 2.16328e-79 0
0.489062 2.28815e-79 0
0.492188 2.38626e-79 0
0.495312 2.45377e-79 0
0.498437 2.48794e-79 0
0.501563 2.48739e-79 0
0.504687 2.45215e-79 0
0.507812 2.38364e-79 0
0.510938 2.28462e-79 0
0.514062 2.159e-79 0
0.517188 2.01152e-79 0
0.520312 1.8476e-79 0
0.523438 1.67286e-79 0
0.526563 1.49294e-79 0
0.529687 1.31312e-79 0
0.532813 1.13813e-79 0
0.535937 9.71947e-80 0
0.539062 8.17685e-80 0
0.542188 6.77561e-80 0
0.545312 5.52899e-80 0
0.548438 4.44211e-80 0
0.551562 3.51298e-80 0
0.554688 2.73403e-80 0
0.557813 2.09343e-80 0
0.560937 1.57657e-80 0
0.564063 1.16745e-80 0
0.567187 8.49743e-81 0
0.570312 6.07736e-81 0
0.573438 4.26926e-81 0
0.576562 2.94463e-81 0
0.579688 1.99325e-81 0
0.582812 1.32358e-81 0
0.585938 8.61746e-82 0
0.589063 5.49834e-82 0
0.592188 3.43606e-82 0
0.595313 2.1019e-82 0
0.598437 1.25781e-82 0
0.601562 7.35819e-83 0
0.604688 4.20512e-83 0
0.607813 2.34582e-83 0
0.610938 1.27636e-83 0
0.614062 6.7674e-84 0
0.617188 3.49331e-84 0
0.620313 1.75382e-84 0
0.623438 8.55448e-85 0
0.626563 4.04906e-85 0
0.629687 1.85745e-85 0
0.632812 8.24713e-86 0
0.635938 3.53888e-86 0
0.639063 1.46531e-86 0
0.642188 5.84462e-87 0
0.645312 2.24134e-87 0
0.648438 8.24737e-88 0
0.651563 2.90557e-88 0
0.654688 9.77608e-89 0
0.657813 3.13315e-89 0
0.660937 9.53672e-90 0
0.664062 2.74792e-90 0
0.667188 7.46852e-91 0
0.670313 1.90699e-91 0
0.673438 4.55416e-92 0
0.676562 1.0121e-92 0
0.679688 2.08125e-93 0
0.682813 3.93546e-94 0
0.685938 6.79107e-95 0
0.689063 1.06069e-95 0
0.692187 1.4854e-96 0
0.695312 1.84392e-97 0
0.698438 2.00265e-98 0
0.701563 1.87367e-99 0
0.704688 1.48321e-100 0
0.707812 9.7152e-102 0
0.710938 5.1214e-103 0
0.714063 2.10536e-104 0
0.717188 6.47074e-106 0
0.720313 1.40822e-107 0
0.723437 2.03339e-109 0
0.726562 1.77262e-111 0
0.729688 8.31204e-114 0
0.732813 1.77926e-116 0
0.735938 1.33637e-119 0
0.739062 2.37903e-123 0
0.742188 5.47149e-128 0
0.745313 9.68785e-134 0
0.748438 3.45902e-141 0
0.751563 3.45902e-141 0
0.754687 6.4408e-134 0
0.757812 7.8863e-128 0
0.760938 3.1181e-123 0
0.764063 1.70521e-119 0
0.767188 2.17482e-116 0
0.770312 9.90311e-114 0
0.773438 2.08318e-111 0
0.776563 2.33948e-109 0
0.779688 1.59579e-107 0
0.782813 7.25115e-106 0
0.785937 2.3368e-104 0
0.789062 5.64055e-103 0
0.792188 1.06134e-101 0
0.795313 1.61085e-100 0
0.798438 2.02274e-99 0
0.801562 2.1507e-98 0
0.804688 1.97196e-97 0
0.807813 1.58229e-96 0
0.810938 1.12594e-95 0
0.814063 7.18436e-95 0
0.817187 4.15083e-94 0
0.820312 2.1896e-93 0
0.823438 1.06198e-92 0
0.826563 4.7677e-92 0
0.829688 1.9922e-91 0
0.832812 7.78617e-91 0
0.835938 2.85932e-90 0
0.839063 9.90568e-90 0
0.842188 3.24909e-89 0
0.845313 1.0122e-88 0
0.848437 3.00381e-88 0
0.851562 8.51472e-88 0
0.854688 2.31091e-87 0
0.857813 6.01835e-87 0
0.860938 1.50711e-86 0
0.864062 3.63569e-86 0
0.867188 8.46333e-86 0
0.870313 1.90418e-85 0
0.873438 4.14674e-85 0
0.876563 8.75248e-85 0
0.879687 1.79278e-84 0
0.882812 3.56777e-84 0
0.885938 6.9057e-84 0
0.889063 1.30137e-83 0
0.892188 2.38989e-83 0
0.895312 4.28081e-83 0
0.898438 7.48514e-83 0
0.901563 1.27858e-82 0
0.904688 2.13514e-82 0
0.907813 3.48802e-82 0
0.910937 5.57782e-82 0
0.914062 8.73648e-82 0
0.917188 1.34102e-81 0
0.920313 2.01829e-81 0
0.923438 2.97985e-81 0
0.926562 4.31784e-81 0
0.929688 6.14301e-81 0
0.932813 8.58449e-81 0
0.935938 1.17876e-80 0
0.939063 1.591e-80 0
0.942187 2.11149e-80 0
0.945312 2.75623e-80 0
0.948438 3.53969e-80 0
0.951563 4.47365e-80 0
0.954688 5.56556e-80 0
0.957812 6.81713e-80 0
0.960938 8.22303e-80 0
0.964063 9.76975e-80 0
0.967188 1.14348e-79 0
0.970313 1.31869e-79 0
0.973437 1.49859e-79 0
0.976562 1.67843e-79 0
0.979688 1.85291e-79 0
0.982813 2.0164e-79 0
0.985938 2.16327e-79 0
0.989062 2.28814e-79 0
0.992188 2.38626e-79 0
0.995313 2.45377e-79 0
0.998438 2.48794e-79 0
