TITLE=FVSolution
VARIABLES=X lambda badcell
ZONE T=TA
0.0015625 4.8191427e-05 0
0.998438 4.8191427-05 0
