TITLE=FVSolution
VARIABLES=X RHO1Z1 RHO2Z2 RHOU Z1 RHO1 RHO2 RHO U PRE theta
ZONE T=TA
0.0015625    0.605890296847702    0.495091419292992      1.1009817161407    0.504908580706689     1.19999999999936    0.999999999999356     1.10098171614069                    1 -6.43485265072741e-13 -32357
0.0046875      0.6176686197004    0.485276150249076     1.10294476994948     0.51472384975061     1.19999999999935    0.999999999999354     1.10294476994948     1.00000000000001 -6.46149800331841e-13 426963873
0.0078125    0.629440130963864    0.475466557529523     1.10490668849339    0.524533442470169     1.19999999999935    0.999999999999353     1.10490668849339     1.00000000000001 -6.47037978751541e-13 -21994
0.0109375    0.641200292496423     0.46566642291906     1.10686671541549     0.53433357708064     1.19999999999935    0.999999999999355     1.10686671541548     1.00000000000001 -6.45039577307216e-13 426963873
0.0140625    0.652944570531938    0.455879524556134     1.10882409508808    0.544120475443573     1.19999999999936    0.999999999999357     1.10882409508807     1.00000000000001 -6.42375042048116e-13 -21994
0.0171875    0.664668437427663    0.446109635476367     1.11077807290404    0.553890364523348     1.19999999999936    0.999999999999361     1.11077807290403     1.00000000000001 -6.3904437297424e-13 1
0.0203125    0.676367373409733     0.43636052215798     1.11272789556772    0.563639477841743     1.19999999999936    0.999999999999365     1.11272789556771     1.00000000000001 -6.35269614690515e-13 1
0.0234375    0.688036868315623    0.426635943069742     1.11467281138537    0.573364056929988     1.19999999999937    0.999999999999367     1.11467281138536     1.00000000000001 -6.33049168641264e-13 1
0.0265625    0.699672423332902    0.416939647222012     1.11661207055492    0.583060352777725     1.19999999999937    0.999999999999369     1.11661207055491     1.00000000000001 -6.31272811801864e-13 1
0.0296875    0.711269552733611    0.407275372721424     1.11854492545504     0.59272462727832     1.19999999999937    0.999999999999371     1.11854492545504                    1 -6.29052365752614e-13 1
0.0328125    0.722823785603598    0.397646845329769     1.12047063093337    0.602353154669981     1.19999999999937     0.99999999999937     1.12047063093337                    1 -6.29718499567389e-13 1
0.0359375     0.73433066756614    0.388057777027648     1.12238844459379    0.611942222972106     1.19999999999937    0.999999999999368     1.12238844459379                    1 -6.32383034826489e-13 1
0.0390625    0.745785762499203     0.37851186458343     1.12429762708263    0.621488135416331     1.19999999999937    0.999999999999367     1.12429762708263                    1 -6.33271213246189e-13 1
0.0421875    0.757184654245638    0.369012788128066     1.12619744237371    0.630987211871699     1.19999999999936    0.999999999999364      1.1261974423737                    1 -6.36157793110215e-13 1
0.0453125    0.768522948315698    0.359564209736348     1.12808715805205    0.640435790263423     1.19999999999936    0.999999999999361     1.12808715805205                    1 -6.3948846218409e-13 1
0.0484375    0.779796273581187    0.350169772015104      1.1299660455963    0.649830227984671     1.19999999999936    0.999999999999357     1.12996604559629     1.00000000000001 -6.43485265072741e-13 1
0.0515625    0.791000283960616     0.34083309669891     1.13183338065954    0.659166903300869     1.19999999999935    0.999999999999353     1.13183338065953     1.00000000000001 -6.47260023356466e-13 1
0.0546875    0.802130660094703    0.331557783253839     1.13368844334856    0.668442216745947     1.19999999999935    0.999999999999352     1.13368844334854     1.00000000000001 -6.48148201776166e-13 1
0.0578125     0.81318311101156    0.322347407489792     1.13553051850137    0.677652592509999     1.19999999999935    0.999999999999352     1.13553051850135     1.00000000000001 -6.47704112566316e-13 1
0.0609375    0.824153375780962    0.313205520181959     1.13735889596294    0.686794479817839     1.19999999999935    0.999999999999354     1.13735889596292     1.00000000000001 -6.46593889541691e-13 1
0.0640625    0.835037225157007    0.304135645701924     1.13917287085894     0.69586435429788     1.19999999999935    0.999999999999354     1.13917287085893     1.00000000000001 -6.45483666517066e-13 1
0.0671875    0.845830463208573    0.295141280658954     1.14097174386754    0.704858719340856     1.19999999999936    0.999999999999356     1.14097174386753     1.00000000000001 -6.43929354282591e-13 1
0.0703125    0.856528928936931    0.286225892551993     1.14275482148893    0.713774107447823     1.19999999999936    0.999999999999359     1.14275482148892     1.00000000000001 -6.4037664060379e-13 1
0.0734375    0.867128497879886    0.277392918432869     1.14452141631276    0.722607081566955     1.19999999999936    0.999999999999365     1.14452141631276     1.00000000000001 -6.35269614690515e-13 1
0.0765625    0.877625083701835     0.26864576358125     1.14627084728309    0.731354236418581     1.19999999999937     0.99999999999937     1.14627084728309     1.00000000000001 -6.30606677987089e-13 1
0.0796875    0.888014639769129    0.259987800191842     1.14800243996098    0.740012199807995     1.19999999999937    0.999999999999372     1.14800243996097     1.00000000000001 -6.27942142727989e-13 1
0.0828125    0.898293160710124    0.251422366074347     1.14971552678448    0.748577633925495     1.19999999999937    0.999999999999372     1.14971552678447     1.00000000000001 -6.27720098123064e-13 1
0.0859375    0.908456683959336     0.24295276336667     1.15140944732601    0.757047236633177     1.19999999999937    0.999999999999371     1.15140944732601     1.00000000000001 -6.29274410357539e-13 1
0.0890625    0.918501291285077    0.234582257261883     1.15308354854697    0.765417742737968     1.19999999999937    0.999999999999367     1.15308354854696     1.00000000000001 -6.33493257851114e-13 1
0.0921875    0.928423110300011    0.226314074749435     1.15473718504946    0.773685925250421     1.19999999999936    0.999999999999362     1.15473718504945     1.00000000000001 -6.3771210534469e-13 1
0.0953125    0.938218315954034     0.21815140337108     1.15636971932513     0.78184859662878     1.19999999999936    0.999999999999357     1.15636971932511     1.00000000000001 -6.42375042048116e-13 1
0.0984375      0.9478831320089    0.210097389992023     1.15798052200094    0.789902610007842     1.19999999999935    0.999999999999354     1.15798052200092     1.00000000000002 -6.45705711121991e-13 1
0.1015625    0.957413832494036    0.202155139587743      1.1595689720818    0.797844860412126     1.19999999999935    0.999999999999353     1.15956897208178     1.00000000000002 -6.46593889541691e-13 1
0.1046875    0.966806743142974    0.194327714046964     1.16113445718996    0.805672285952911     1.19999999999936    0.999999999999356     1.16113445718994     1.00000000000002 -6.43929354282591e-13 1
0.1078125    0.976058242809852    0.186618130991236     1.16267637380111    0.813381869008645     1.19999999999936    0.999999999999359     1.16267637380109     1.00000000000002 -6.41486863628415e-13 1
0.1109375    0.985164764865432    0.179029362611588     1.16419412747704    0.820970637388297     1.19999999999936    0.999999999999361     1.16419412747702     1.00000000000002 -6.39266417579165e-13 1
0.1140625    0.994122798572109    0.171564334522694     1.16568713309482    0.828435665477197     1.19999999999936    0.999999999999365      1.1656871330948     1.00000000000001 -6.35713703900365e-13 1
0.1171875     1.00292889043736    0.164225924634991     1.16715481507236    0.835774075364905     1.19999999999936    0.999999999999365     1.16715481507235     1.00000000000001 -6.3504757008559e-13 1
0.1203125     1.01157964554512     0.15701696204519     1.16859660759032    0.842983037954711     1.19999999999936    0.999999999999365     1.16859660759031     1.00000000000001 -6.3593574850529e-13 1
0.1234375     1.02007172886462    0.149940225945608     1.17001195481024    0.850059774054297     1.19999999999936    0.999999999999364     1.17001195481022     1.00000000000001 -6.35713703900365e-13 1
0.1265625     1.02840186653607    0.142998444552733     1.17140031108882    0.857001555447176     1.19999999999937    0.999999999999367      1.1714003110888     1.00000000000001 -6.33493257851114e-13 1
0.1296875     1.03656684713282    0.136194294055446     1.17276114118828    0.863805705944468     1.19999999999937    0.999999999999368     1.17276114118826     1.00000000000001 -6.31272811801864e-13 1
0.1328125      1.0445635228994    0.129530397583297     1.17409392048271    0.870469602416621     1.19999999999937    0.999999999999371      1.1740939204827     1.00000000000001 -6.28830321147689e-13 1
0.1359375     1.05238881096507    0.123009324195241     1.17539813516032    0.876990675804682     1.19999999999937    0.999999999999372     1.17539813516031     1.00000000000001 -6.28386231937839e-13 1
0.1390625     1.06003969453229    0.116633587889217     1.17667328242152     0.88336641211071     1.19999999999937    0.999999999999369     1.17667328242151     1.00000000000001 -6.30828722592014e-13 1
0.1421875      1.0675132240398    0.110405646632958     1.17791887067277    0.889594353366972     1.19999999999937    0.999999999999367     1.17791887067276     1.00000000000001 -6.33271213246189e-13 1
0.1453125     1.07480651829968    0.104327901416393     1.17913441971609    0.895672098583541     1.19999999999937    0.999999999999367     1.17913441971607     1.00000000000001 -6.33493257851114e-13 1
0.1484375     1.08191676560813   0.0984026953260178     1.18031946093416     0.90159730467392     1.19999999999937    0.999999999999367     1.18031946093415     1.00000000000001 -6.32383034826489e-13 1
0.1515625     1.08884122482945   0.0926323126415886     1.18147353747105    0.907367687358353     1.19999999999937     0.99999999999937     1.18147353747104     1.00000000000001 -6.30384633382164e-13 1
0.1546875     1.09557722645277   0.0870189779554885     1.18259620440827    0.912981022044457     1.19999999999937    0.999999999999371     1.18259620440826     1.00000000000001 -6.28830321147689e-13 1
0.1578125     1.10212217362122   0.0815648553151146     1.18368702893635    0.918435144684834     1.19999999999937    0.999999999999369     1.18368702893634     1.00000000000001 -6.29940544172314e-13 1
0.1609375     1.10847354313303   0.0762720473886061     1.18474559052165    0.923727952611346     1.19999999999937    0.999999999999366     1.18474559052164     1.00000000000001 -6.33715302456039e-13 1
0.1640625     1.11462888641427   0.0711425946542318     1.18577148106852    0.928857405345723     1.19999999999936    0.999999999999362     1.18577148106851     1.00000000000001 -6.37934149949615e-13 1
0.1671875     1.12058583046286   0.0661784746137365     1.18676430507662    0.933821525386221     1.19999999999936    0.999999999999358      1.1867643050766     1.00000000000002 -6.43041175862891e-13 1
0.1703125      1.1263420787634   0.0613816010299513     1.18772367979337    0.938618398970009     1.19999999999935     0.99999999999935     1.18772367979335     1.00000000000002 -6.48592290986016e-13 1
0.1734375     1.13189541217257   0.0567538231889741     1.18864923536156    0.943246176810989     1.19999999999935    0.999999999999351     1.18864923536155     1.00000000000001 -6.49036380195867e-13 1
0.1765625     1.13724368977467   0.0522969251872293     1.18954061496191    0.947703074812737     1.19999999999935    0.999999999999353      1.1895406149619     1.00000000000001 -6.46371844936766e-13 1
0.1796875      1.1423848497069   0.0480126252437124     1.19039747495061    0.951987374756257     1.19999999999936    0.999999999999359     1.19039747495061                    1 -6.4082072981364e-13 1
0.1828125     1.14731690995415   0.0439025750376741     1.19121948499183    0.956097424962298     1.19999999999936    0.999999999999363     1.19121948499182                    1 -6.38378239159465e-13 1
0.1859375     1.15203796911301   0.0399683590719525     1.19200632818497    0.960031640928022     1.19999999999936    0.999999999999358     1.19200632818496     1.00000000000001 -6.4082072981364e-13 1
0.1890625     1.15654620712482   0.0362114940621053     1.19275770118694    0.963788505937871     1.19999999999935    0.999999999999355     1.19275770118693     1.00000000000001 -6.45261621912141e-13 1
0.1921875     1.16083988597754   0.0326334283515084     1.19347331432906    0.967366571648471     1.19999999999935    0.999999999999353     1.19347331432905     1.00000000000001 -6.46371844936766e-13 1
0.1953125     1.16491735037614   0.0292355413526728     1.19415289172883    0.970764458647308     1.19999999999935    0.999999999999353     1.19415289172882     1.00000000000001 -6.45261621912141e-13 1
0.1984375     1.16877702838115   0.0260191430151694     1.19479617139633    0.973980856984814     1.19999999999936    0.999999999999355     1.19479617139632     1.00000000000001 -6.42597086653041e-13 1
0.2015625     1.17241743201459   0.0229854733206432     1.19540290533524    0.977014526679342     1.19999999999936    0.999999999999361     1.19540290533523     1.00000000000001 -6.39266417579165e-13 1
0.2046875     1.17583715783296   0.0201357018053335      1.1959728596383    0.979864298194654     1.19999999999936    0.999999999999366      1.1959728596383     1.00000000000001 -6.35713703900365e-13 1
0.2078125     1.17903488746712   0.0174709271102049     1.19650581457733    0.982529072889784     1.19999999999937    0.999999999999363     1.19650581457732                    1 -6.33049168641264e-13 1
0.2109375     1.18200938812938   0.0149921765583243      1.1970015646877    0.985007823441666     1.19999999999937    0.999999999999369      1.1970015646877                    1 -6.32160990221564e-13 1
0.2140625     1.18475951308891   0.0127004057587149     1.19745991884762    0.987299594241277     1.19999999999937    0.999999999999371     1.19745991884762                    1 -6.31494856406789e-13 1
0.2171875     1.18728420211624   0.0105964982359403     1.19788070035218    0.989403501764053     1.19999999999937    0.999999999999369     1.19788070035218                    1 -6.29718499567389e-13 1
0.2203125     1.18958248189691  0.00868126508538075     1.19826374698229    0.991318734914614     1.19999999999937    0.999999999999379     1.19826374698229                    1 -6.30828722592014e-13 1
0.2234375     1.19165346641274  0.00695544465552056     1.19860891106826    0.993044555344475     1.19999999999937    0.999999999999362     1.19860891106826                    1 -6.33493257851114e-13 1
0.2265625     1.19349635728731   0.0054197022600458     1.19891605954735    0.994580297739951     1.19999999999936    0.999999999999356     1.19891605954735                    1 -6.36601882320065e-13 1
0.2296875     1.19511044409145  0.00407462992325535     1.19918507401471    0.995925370076742     1.19999999999936    0.999999999999373     1.19918507401471                    1 -6.38378239159465e-13 1
0.2328125     1.19649510460586  0.00292074616125444     1.19941585076712    0.997079253838744     1.19999999999936    0.999999999999339     1.19941585076711                    1 -6.3637983771514e-13 1
0.2359375      1.1976498050415  0.00195849579822183     1.19960830083972    0.998041504201777     1.19999999999937    0.999999999999377     1.19960830083972                    1 -6.33049168641264e-13 1
0.2390625     1.19857410022442  0.00118824981245142     1.19976235003688    0.998811750187548     1.19999999999937    0.999999999999306     1.19976235003688                    1 -6.33715302456039e-13 1
0.2421875     1.19926763375573 0.000610305203025043     1.19987793895876    0.999389694796974     1.19999999999936    0.999999999999221     1.19987793895876                    1 -6.37045971529915e-13 1
0.2453125     1.19973013815771  0.00022488486804205     1.19995502302576    0.999775115131958     1.19999999999936    0.999999999999446     1.19995502302575                    1 -6.40598685208715e-13 1
0.2484375     1.19996143500918 3.21374918177569e-05       1.199993572501    0.999967862508182     1.19999999999936      1.0000000000005     1.19999357250099     1.00000000000001 -6.43485265072741e-13 1
0.2515625     1.19996143505908 3.21374502301306e-05     1.19999357250931     0.99996786254977     1.19999999999936     1.00000000000037     1.19999357250931                    1 -6.44595488097366e-13 1
0.2546875     1.19973013829549 0.000224884753217727     1.19995502304871    0.999775115246782     1.19999999999935    0.999999999999663     1.19995502304871                    1 -6.45261621912141e-13 1
0.2578125     1.19926763394969 0.000610305041392033     1.19987793899108    0.999389694958608     1.19999999999936     0.99999999999927     1.19987793899108                    1 -6.43929354282591e-13 1
0.2609375     1.19857410043338  0.00118824963831299      1.1997623500717    0.998811750361686     1.19999999999936    0.999999999999351      1.1997623500717     1.00000000000001 -6.3993255139394e-13 1
0.2640625     1.19764980522708  0.00195849564356649     1.19960830087066    0.998041504356432     1.19999999999936    0.999999999999352     1.19960830087065     1.00000000000001 -6.3504757008559e-13 1
0.2671875     1.19649510474209  0.00292074604773182     1.19941585078983    0.997079253952266     1.19999999999937    0.999999999999345     1.19941585078982     1.00000000000001 -6.32383034826489e-13 1
0.2703125     1.19511044416903  0.00407462985861704     1.19918507402766     0.99592537014138     1.19999999999937    0.999999999999369     1.19918507402764     1.00000000000001 -6.31272811801864e-13 1
0.2734375     1.19349635731212  0.00541970223937301     1.19891605955151    0.994580297760624     1.19999999999937    0.999999999999359      1.1989160595515     1.00000000000001 -6.27276008913213e-13 1
0.2765625     1.19165346640034  0.00695544466586527     1.19860891106621     0.99304455533413     1.19999999999937    0.999999999999376      1.1986089110662     1.00000000000001 -6.25277607468888e-13 1
0.2796875     1.18958248186549  0.00868126511157325     1.19826374697707    0.991318734888421     1.19999999999938    0.999999999999367     1.19826374697706     1.00000000000001 -6.24389429049188e-13 1
0.2828125     1.18728420208088    0.010596498265411      1.1978807003463    0.989403501734582     1.19999999999938    0.999999999999371     1.19788070034629     1.00000000000001 -6.24611473654113e-13 1
0.2859375     1.18475951305854   0.0127004057840262     1.19745991884258    0.987299594215966     1.19999999999937    0.999999999999373     1.19745991884256     1.00000000000001 -6.28164187332914e-13 1
0.2890625     1.18200938810667   0.0149921765772429     1.19700156468393    0.985007823422748     1.19999999999937    0.999999999999367     1.19700156468392     1.00000000000001 -6.34381436270814e-13 1
0.2921875     1.17903488745048   0.0174709271240661     1.19650581457456    0.982529072875923     1.19999999999936    0.999999999999358     1.19650581457455     1.00000000000002 -6.38822328369315e-13 1
0.2953125     1.17583715781914    0.020135701816846       1.195972859636    0.979864298183141     1.19999999999936    0.999999999999359     1.19597285963599     1.00000000000001 -6.3860028376439e-13 1
0.2984375     1.17241743200081   0.0229854733321288     1.19540290533295    0.977014526667857     1.19999999999936    0.999999999999364     1.19540290533294     1.00000000000001 -6.35269614690515e-13 1
0.3015625     1.16877702836608   0.0260191430277322     1.19479617139383    0.973980856972251     1.19999999999937    0.999999999999366     1.19479617139382     1.00000000000001 -6.33937347060964e-13 1
0.3046875     1.16491735035986   0.0292355413662523     1.19415289172613    0.970764458633729     1.19999999999937    0.999999999999364     1.19415289172611     1.00000000000001 -6.34603480875739e-13 1
0.3078125     1.16083988596085   0.0326334283654291     1.19347331432629     0.96736657163455     1.19999999999937    0.999999999999366     1.19347331432628     1.00000000000001 -6.32827124036339e-13 1
0.3109375     1.15654620710855   0.0362114940756754     1.19275770118424    0.963788505924302     1.19999999999937    0.999999999999368     1.19275770118423     1.00000000000001 -6.30606677987089e-13 1
0.3140625     1.15203796909758   0.0399683590848182     1.19200632818241    0.960031640915156     1.19999999999937    0.999999999999367      1.1920063281824     1.00000000000001 -6.32827124036339e-13 1
0.3171875     1.14731690993952   0.0439025750498667      1.1912194849894    0.956097424950105     1.19999999999936    0.999999999999362     1.19121948498938     1.00000000000001 -6.36157793110215e-13 1
0.3203125     1.14238484969277   0.0480126252554909     1.19039747494827    0.951987374744478     1.19999999999936    0.999999999999362     1.19039747494826     1.00000000000001 -6.39266417579165e-13 1
0.3234375      1.1372436897607   0.0522969251988779     1.18954061495958    0.947703074801089     1.19999999999936    0.999999999999359     1.18954061495958     1.00000000000001 -6.4170890823334e-13 1
0.3265625     1.13189541215854    0.056753823200673     1.18864923535922     0.94324617679929     1.19999999999935    0.999999999999353     1.18864923535921     1.00000000000001 -6.47926157171241e-13 1
0.3296875     1.12634207874924   0.0613816010417547     1.18772367979101    0.938618398958205     1.19999999999935    0.999999999999349     1.18772367979099     1.00000000000001 -6.50590692430342e-13 1
0.3328125      1.1205858304486   0.0661784746256204     1.18676430507424    0.933821525374336     1.19999999999935    0.999999999999349     1.18676430507422     1.00000000000002 -6.50590692430342e-13 1
0.3359375     1.11462888639995   0.0711425946661596     1.18577148106613    0.928857405333794     1.19999999999935    0.999999999999352     1.18577148106611     1.00000000000002 -6.47260023356466e-13 1
0.3390625     1.10847354311866   0.0762720474005679     1.18474559051925    0.923727952599383     1.19999999999936    0.999999999999356     1.18474559051923     1.00000000000002 -6.44151398887516e-13 1
0.3421875     1.10212217360679   0.0815648553271328     1.18368702893394    0.918435144672815     1.19999999999936    0.999999999999362     1.18368702893392     1.00000000000001 -6.3904437297424e-13 1
0.3453125     1.09557722643824   0.0870189779676017     1.18259620440584    0.912981022032343     1.19999999999937    0.999999999999368     1.18259620440584     1.00000000000001 -6.30828722592014e-13 1
0.3484375     1.08884122481477   0.0926323126538313      1.1814735374686    0.907367687346111     1.19999999999938    0.999999999999377      1.1814735374686                    1 -6.22835116814713e-13 1
0.3515625     1.08191676559327   0.0984026953384115     1.18031946093168    0.901597304661527     1.19999999999938    0.999999999999378     1.18031946093168                    1 -6.21724893790088e-13 1
0.3546875     1.07480651828463    0.104327901428946     1.17913441971358    0.895672098570989     1.19999999999938    0.999999999999375     1.17913441971357                    1 -6.24833518259038e-13 1
0.3578125     1.06751322402455    0.110405646645672     1.17791887067023    0.889594353354259     1.19999999999937    0.999999999999374     1.17791887067022                    1 -6.27053964308288e-13 1
0.3609375     1.06003969451684    0.116633587902094     1.17667328241894    0.883366412097832     1.19999999999937    0.999999999999368     1.17667328241893                    1 -6.31938945616639e-13 1
0.3640625      1.0523888109494    0.123009324208286      1.1753981351577    0.876990675791636     1.19999999999936    0.999999999999362     1.17539813515769     1.00000000000001 -6.37934149949615e-13 1
0.3671875     1.04456352288352    0.129530397596516     1.17409392048004      0.8704696024034     1.19999999999936    0.999999999999355     1.17409392048004     1.00000000000001 -6.44151398887516e-13 1
0.3703125     1.03656684711672    0.136194294068845     1.17276114118558    0.863805705931067     1.19999999999935    0.999999999999352     1.17276114118556     1.00000000000001 -6.48370246381091e-13 1
0.3734375     1.02840186651976    0.142998444566316     1.17140031108608    0.857001555433592     1.19999999999935    0.999999999999353     1.17140031108607     1.00000000000001 -6.47037978751541e-13 1
0.3765625     1.02007172884809    0.149940225959376     1.17001195480748    0.850059774040527     1.19999999999936    0.999999999999357     1.17001195480746     1.00000000000001 -6.43263220467816e-13 1
0.3796875     1.01157964552837    0.157016962059144     1.16859660758753    0.842983037940756     1.19999999999936    0.999999999999361     1.16859660758751     1.00000000000001 -6.38378239159465e-13 1
0.3828125     1.00292889042039    0.164225924649131     1.16715481506953    0.835774075350765     1.19999999999937    0.999999999999366     1.16715481506952     1.00000000000001 -6.33937347060964e-13 1
0.3859375    0.994122798554923    0.171564334537018     1.16568713309195    0.828435665462873     1.19999999999937    0.999999999999366     1.16568713309194     1.00000000000001 -6.33715302456039e-13 1
0.3890625     0.98516476484803    0.179029362626094     1.16419412747414    0.820970637373792     1.19999999999937    0.999999999999365     1.16419412747412     1.00000000000001 -6.34603480875739e-13 1
0.3921875    0.976058242792234    0.186618131005923     1.16267637379817    0.813381868993958     1.19999999999936    0.999999999999364     1.16267637379816     1.00000000000001 -6.3504757008559e-13 1
0.3953125    0.966806743125143    0.194327714061832     1.16113445718699    0.805672285938045     1.19999999999937    0.999999999999366     1.16113445718698     1.00000000000001 -6.33715302456039e-13 1
0.3984375    0.957413832475993    0.202155139602792      1.1595689720788    0.797844860397081     1.19999999999937    0.999999999999368     1.15956897207878     1.00000000000001 -6.31938945616639e-13 1
0.4015625    0.947883131990643    0.210097390007248      1.1579805219979    0.789902609992619     1.19999999999937    0.999999999999367     1.15798052199789     1.00000000000001 -6.33049168641264e-13 1
0.4046875    0.938218315935564    0.218151403386477     1.15636971932205    0.781848596613384     1.19999999999936    0.999999999999364     1.15636971932204     1.00000000000001 -6.35713703900365e-13 1
0.4078125    0.928423110281333       0.226314074765     1.15473718504634    0.773685925234855     1.19999999999936    0.999999999999363     1.15473718504633     1.00000000000001 -6.3771210534469e-13 1
0.4109375    0.918501291266196    0.234582257277613     1.15308354854382    0.765417742722237     1.19999999999936    0.999999999999361     1.15308354854381     1.00000000000001 -6.3860028376439e-13 1
0.4140625    0.908456683940258    0.242952763382561     1.15140944732283    0.757047236617284     1.19999999999936    0.999999999999362     1.15140944732282     1.00000000000001 -6.3860028376439e-13 1
0.4171875    0.898293160690857    0.251422366090395     1.14971552678126    0.748577633909445     1.19999999999936    0.999999999999363     1.14971552678125     1.00000000000001 -6.3682392692499e-13 1
0.4203125    0.888014639749682    0.259987800208042     1.14800243995773    0.740012199791793     1.19999999999937    0.999999999999365     1.14800243995772     1.00000000000001 -6.34603480875739e-13 1
0.4234375    0.877625083682215    0.268645763597599     1.14627084727983    0.731354236402231     1.19999999999937    0.999999999999368     1.14627084727981     1.00000000000001 -6.32160990221564e-13 1
0.4265625      0.8671284978601    0.277392918449363     1.14452141630947    0.722607081550462     1.19999999999937    0.999999999999371     1.14452141630946     1.00000000000001 -6.29052365752614e-13 1
0.4296875    0.856528928916983    0.286225892568627     1.14275482148562    0.713774107431193     1.19999999999937    0.999999999999372     1.14275482148561     1.00000000000001 -6.28386231937839e-13 1
0.4328125    0.845830463188466    0.295141280675721      1.1409717438642    0.704858719324093     1.19999999999937    0.999999999999369     1.14097174386419     1.00000000000001 -6.30828722592014e-13 1
0.4359375    0.835037225136745    0.304135645718817     1.13917287085557     0.69586435428099     1.19999999999936    0.999999999999364     1.13917287085556     1.00000000000001 -6.3637983771514e-13 1
0.4390625    0.824153375760552    0.313205520198974     1.13735889595954    0.686794479800826     1.19999999999936     0.99999999999936     1.13735889595953     1.00000000000001 -6.39710506789015e-13 1
0.4421875     0.81318311099101    0.322347407506926     1.13553051849794    0.677652592492868     1.19999999999936    0.999999999999362     1.13553051849794     1.00000000000001 -6.37490060739765e-13 1
0.4453125    0.802130660074018    0.331557783271087     1.13368844334511    0.668442216728702     1.19999999999936    0.999999999999364      1.1336884433451     1.00000000000001 -6.35713703900365e-13 1
0.4484375    0.791000283939804    0.340833096716264     1.13183338065608    0.659166903283519     1.19999999999936    0.999999999999364     1.13183338065607     1.00000000000001 -6.36601882320065e-13 1
0.4515625     0.77979627356025    0.350169772032553     1.12996604559282    0.649830227967222     1.19999999999936    0.999999999999359      1.1299660455928     1.00000000000001 -6.4126481902349e-13 1
0.4546875    0.768522948294644    0.359564209753886     1.12808715804855    0.640435790245881     1.19999999999935    0.999999999999354     1.12808715804853     1.00000000000001 -6.45705711121991e-13 1
0.4578125    0.757184654224479     0.36901278814569     1.12619744237018    0.630987211854072     1.19999999999936    0.999999999999355     1.12619744237017     1.00000000000001 -6.44817532702291e-13 1
0.4609375    0.745785762477945    0.378511864601138     1.12429762707909     0.62148813539862     1.19999999999936    0.999999999999359     1.12429762707908     1.00000000000001 -6.4037664060379e-13 1