TITLE=FVSolution
VARIABLES=X RHO1Z1 RHO2Z2 RHOU Z1 RHO1 RHO2 RHO U PRE theta
ZONE T=TA
0.0025    0.609424002640873    0.492146664465939     1.10157066710681    0.507853335534061                  1.2                    1     1.10157066710681                    1 -2.22044604925031e-16 -30727
0.0075    0.628262707569788    0.476447743691844     1.10471045126163    0.523552256308156                  1.2                    1     1.10471045126163                    1                    0 1
0.0125    0.647073520618528    0.460772066151226     1.10784558676975    0.539227933848774                  1.2                    1     1.10784558676975                    1                    0 1
0.0175    0.665837877785674    0.445135101845272     1.11097297963095    0.554864898154728                  1.2                    1     1.11097297963095                    1 -2.22044604925031e-16 1
0.0225    0.684537260916148    0.429552282569877     1.11408954348602    0.570447717430123                  1.2                    1     1.11408954348602                    1                    0 1
0.0275    0.703153215976405    0.414038986686329     1.11719220266273    0.585961013313671                  1.2                    1     1.11719220266273                    1                    0 1
0.0325    0.721667371266332    0.398610523944723     1.12027789521106    0.601389476055277                  1.2                    1     1.12027789521106                    1                    0 1
0.0375    0.740061455549899    0.383282120375084     1.12334357592498    0.616717879624916                  1.2                    1     1.12334357592498                    1                    0 1
0.0425    0.758317316086663    0.368068903261114     1.12638621934778    0.631931096738886                  1.2                    1     1.12638621934778                    1                    0 1
0.0475     0.77641693654633    0.352985886211392     1.12940282275772    0.647014113788608                  1.2                    1     1.12940282275772                    1                    0 1
0.0525    0.794342454788701    0.338047954342749     1.13239040913145    0.661952045657251                  1.2                    1     1.13239040913145                    1                    0 1
0.0575    0.812076180491444    0.323269849590463     1.13534603008191    0.676730150409537                  1.2                    1     1.13534603008191                    1                    0 1
0.0625     0.82960061260831    0.308666156159741     1.13826676876805    0.691333843840259                  1.2                    1     1.13826676876805                    1                    0 1
0.0675     0.84689845664055    0.294251286132875     1.14114974277342    0.705748713867125                  1.2                    1     1.14114974277342                    1                    0 1
0.0725    0.863952641704497    0.280039465246253     1.14399210695075    0.719960534753747                  1.2                    1     1.14399210695075                    1                    0 1
0.0775     0.88074633737847    0.266044718851275     1.14679105622974    0.733955281148725                  1.2                    1     1.14679105622974                    1                    0 1
0.0825    0.897262970312367    0.252280858073027     1.14954382838539    0.747719141926973                  1.2                    1     1.14954382838539                    1 2.22044604925031e-16 1
0.0875    0.913486240583559    0.238761466180367     1.15224770676393    0.761238533819633                  1.2                    1     1.15224770676393                    1                    0 1
0.0925    0.929400137782948    0.225499885180877     1.15490002296382    0.774500114819123                  1.2                    1     1.15490002296382                    1                    0 1
0.0975    0.944988956815305    0.212509202653912     1.15749815946922    0.787490797346088                  1.2                    1     1.15749815946922                    1                    0 1
0.1025    0.960237313398307    0.199802238834744     1.16003955223305    0.800197761165256                  1.2                    1     1.16003955223305                    1                    0 1
0.1075    0.975130159244963    0.187391533962531     1.16252169320749    0.812608466037469                  1.2                    1     1.16252169320749                    1                    0 1
0.1125    0.989652796914457    0.175289335904619     1.16494213281908    0.824710664095381                  1.2                    1     1.16494213281908                    1 -2.22044604925031e-16 1
0.1175     1.00379089431675    0.163507588069376     1.16729848238612    0.836492411930624                  1.2                    1     1.16729848238612                    1 -2.22044604925031e-16 1
0.1225     1.01753049885662    0.152057917619487      1.1695884164761    0.847942082380513                  1.2                    1      1.1695884164761                    1 -2.22044604925031e-16 1
0.1275     1.03085805120318    0.140951623997351     1.17180967520053    0.859048376002649                  1.2                    1     1.17180967520053                    1                    0 1
0.1325     1.04376039867133    0.130199667773894     1.17396006644522    0.869800332226106                  1.2                    1     1.17396006644522                    1 -2.22044604925031e-16 1
0.1375     1.05622480820183    0.119812659831809     1.17603746803364    0.880187340168191                  1.2                    1     1.17603746803364                    1                    0 1
0.1425     1.06823897892732    0.109800850893896     1.17803982982122    0.890199149106104                  1.2                    1     1.17803982982122                    1                    0 1
0.1475      1.0797910543118    0.100174121406836     1.17996517571863    0.899825878593164                  1.2                    1     1.17996517571863                    1                    0 1
0.1525     1.09086963385154   0.0909419717903851     1.18181160564192    0.909058028209615                  1.2                    1     1.18181160564192                    1                    0 1
0.1575     1.10146378432608   0.0821135130616026     1.18357729738768    0.917886486938397                  1.2    0.999999999999999     1.18357729738768                    1                    0 1
0.1625     1.11156305058794   0.0736974578433812     1.18526050843132    0.926302542156619                  1.2    0.999999999999999     1.18526050843132                    1 -2.22044604925031e-16 1
0.1675     1.12115746588063   0.0657021117661387     1.18685957764677    0.934297888233861                  1.2                    1     1.18685957764677                    1 -2.22044604925031e-16 1
0.1725      1.1302375616746   0.0581353652711635     1.18837292694577    0.941864634728837                  1.2                    1     1.18837292694577                    1 -2.22044604925031e-16 1
0.1775     1.13879437701156    0.051004685823702     1.18979906283526    0.948995314176298                  1.2                    1     1.18979906283526                    1                    0 1
0.1825     1.14681946734783   0.0443171105434711     1.19113657789131    0.955682889456529                  1.2                    1     1.19113657789131                    1 -2.22044604925031e-16 1
0.1875     1.15430491288815   0.0380792392598719     1.19238415214803    0.961920760740128                  1.2                    1     1.19238415214803                    1 -4.44089209850063e-16 1
0.1925     1.16124332640149    0.032297227998754     1.19354055440025    0.967702772001246                  1.2    0.999999999999999     1.19354055440025                    1 -2.22044604925031e-16 1
0.1975     1.16762786051141   0.0269767829071612     1.19460464341857    0.973023217092839                  1.2                    1     1.19460464341857                    1 -2.22044604925031e-16 1
0.2025     1.17345221445353    0.022123154622054     1.19557536907559    0.977876845377946                  1.2                    1     1.19557536907559                    1 -2.22044604925031e-16 1
0.2075     1.17871064029372   0.0177411330885642     1.19645177338229    0.982258866911436                  1.2                    1     1.19645177338229                    1 -2.22044604925031e-16 1
0.2125     1.18339794860052   0.0138350428328973     1.19723299143342    0.986164957167103                  1.2                    1     1.19723299143342                    1 -2.22044604925031e-16 1
0.2175     1.18750951356654   0.0104087386945478     1.19791825226109    0.989591261305452                  1.2     1.00000000000001     1.19791825226109                    1 -2.22044604925031e-16 1
0.2225     1.19104127757356  0.00746560202203745     1.19850687959559    0.992534397977963                  1.2     1.00000000000001     1.19850687959559                    1                    0 1
0.2275     1.19398975519688  0.00500853733593285     1.19899829253281    0.994991462664067                  1.2     1.00000000000002     1.19899829253281                    1                    0 1
0.2325     1.19635203664508  0.00303996946243407     1.19939200610751    0.996960030537566                  1.2    0.999999999999983     1.19939200610751                    1                    0 1
0.2375     1.19812579063156  0.00156184114036437     1.19968763177193    0.998438158859636                  1.2    0.999999999999982     1.19968763177193                    1 -2.22044604925031e-16 1
0.2425     1.19930926667529 0.000575611103920972     1.19988487777922    0.999424388896079                  1.2    0.999999999999926     1.19988487777922                    1                    0 1
0.2475      1.1999012968283 8.22526430807459e-05     1.19998354947138    0.999917747356919                  1.2      1.0000000000005     1.19998354947138                    1 -2.22044604925031e-16 1
0.2525      1.1999012968283 8.22526430807459e-05     1.19998354947138    0.999917747356919                  1.2      1.0000000000005     1.19998354947138                    1 -2.22044604925031e-16 1
0.2575     1.19930926667529 0.000575611103920972     1.19988487777922    0.999424388896079                  1.2    0.999999999999926     1.19988487777922                    1                    0 1
0.2625     1.19812579063156  0.00156184114036437     1.19968763177193    0.998438158859636                  1.2    0.999999999999983     1.19968763177193                    1                    0 1
0.2675     1.19635203664508  0.00303996946243407     1.19939200610751    0.996960030537566                  1.2    0.999999999999983     1.19939200610751                    1                    0 1
0.2725     1.19398975519688  0.00500853733593279     1.19899829253281    0.994991462664067                  1.2     1.00000000000001     1.19899829253281                    1                    0 1
0.2775     1.19104127757355  0.00746560202203745     1.19850687959559    0.992534397977963                  1.2    0.999999999999994     1.19850687959559                    1 -2.22044604925031e-16 1
0.2825     1.18750951356654   0.0104087386945478     1.19791825226109    0.989591261305452                  1.2    0.999999999999994     1.19791825226109                    1 2.22044604925031e-16 1
0.2875     1.18339794860052   0.0138350428328973     1.19723299143342    0.986164957167103                  1.2                    1     1.19723299143342                    1 -2.22044604925031e-16 1
0.2925     1.17871064029372   0.0177411330885642     1.19645177338229    0.982258866911436                  1.2                    1     1.19645177338229                    1                    0 1
0.2975     1.17345221445354    0.022123154622054     1.19557536907559    0.977876845377946                  1.2    0.999999999999998     1.19557536907559                    1                    0 1
0.3025     1.16762786051141   0.0269767829071612     1.19460464341857    0.973023217092839                  1.2                    1     1.19460464341857                    1                    0 1
0.3075      1.1612433264015   0.0322972279987539     1.19354055440025    0.967702772001246                  1.2                    1     1.19354055440025                    1                    0 1
0.3125     1.15430491288815   0.0380792392598719     1.19238415214803    0.961920760740128                  1.2                    1     1.19238415214803                    1 -2.22044604925031e-16 1
0.3175     1.14681946734783   0.0443171105434711     1.19113657789131    0.955682889456529                  1.2                    1     1.19113657789131                    1 -2.22044604925031e-16 1
0.3225     1.13879437701156   0.0510046858237019     1.18979906283526    0.948995314176298                  1.2    0.999999999999999     1.18979906283526                    1 -2.22044604925031e-16 1
0.3275      1.1302375616746   0.0581353652711635     1.18837292694577    0.941864634728836                  1.2    0.999999999999999     1.18837292694577                    1                    0 1
0.3325     1.12115746588063   0.0657021117661387     1.18685957764677    0.934297888233861                  1.2                    1     1.18685957764677                    1                    0 1
0.3375     1.11156305058794   0.0736974578433812     1.18526050843132    0.926302542156619                  1.2                    1     1.18526050843132                    1                    0 1
0.3425     1.10146378432608   0.0821135130616025     1.18357729738768    0.917886486938397                  1.2                    1     1.18357729738768                    1                    0 1
0.3475     1.09086963385154   0.0909419717903851     1.18181160564192    0.909058028209615                  1.2                    1     1.18181160564192                    1                    0 1
0.3525      1.0797910543118    0.100174121406836     1.17996517571863    0.899825878593164                  1.2                    1     1.17996517571863                    1                    0 1
0.3575     1.06823897892732    0.109800850893896     1.17803982982122    0.890199149106104                  1.2                    1     1.17803982982122                    1 -2.22044604925031e-16 1
0.3625     1.05622480820183    0.119812659831809     1.17603746803364    0.880187340168191                  1.2                    1     1.17603746803364                    1 -2.22044604925031e-16 1
0.3675     1.04376039867133    0.130199667773894     1.17396006644522    0.869800332226106                  1.2    0.999999999999999     1.17396006644522                    1 -2.22044604925031e-16 1
0.3725     1.03085805120318    0.140951623997351     1.17180967520053    0.859048376002649                  1.2                    1     1.17180967520053                    1 -2.22044604925031e-16 1
0.3775     1.01753049885662    0.152057917619487      1.1695884164761    0.847942082380513                  1.2                    1      1.1695884164761                    1                    0 1
0.3825     1.00379089431675    0.163507588069376     1.16729848238612    0.836492411930624                  1.2                    1     1.16729848238612                    1 -2.22044604925031e-16 1
0.3875    0.989652796914457    0.175289335904619     1.16494213281908    0.824710664095381                  1.2                    1     1.16494213281908                    1 -2.22044604925031e-16 1
0.3925    0.975130159244963    0.187391533962531     1.16252169320749    0.812608466037469                  1.2                    1     1.16252169320749                    1 -2.22044604925031e-16 1
0.3975    0.960237313398307    0.199802238834744     1.16003955223305    0.800197761165256                  1.2                    1     1.16003955223305                    1 -2.22044604925031e-16 1
0.4025    0.944988956815305    0.212509202653912     1.15749815946922    0.787490797346088                  1.2                    1     1.15749815946922                    1                    0 1
0.4075    0.929400137782948    0.225499885180877     1.15490002296382    0.774500114819123                  1.2                    1     1.15490002296382                    1                    0 1
0.4125    0.913486240583559    0.238761466180367     1.15224770676393    0.761238533819633                  1.2                    1     1.15224770676393                    1 -2.22044604925031e-16 1
0.4175    0.897262970312367    0.252280858073027     1.14954382838539    0.747719141926973                  1.2                    1     1.14954382838539                    1                    0 1
0.4225     0.88074633737847    0.266044718851275     1.14679105622974    0.733955281148725                  1.2                    1     1.14679105622974                    1                    0 1
0.4275    0.863952641704497    0.280039465246253     1.14399210695075    0.719960534753747                  1.2                    1     1.14399210695075                    1                    0 1
0.4325     0.84689845664055    0.294251286132875     1.14114974277342    0.705748713867125                  1.2                    1     1.14114974277342                    1                    0 1
0.4375     0.82960061260831    0.308666156159741     1.13826676876805    0.691333843840259                  1.2                    1     1.13826676876805                    1 -2.22044604925031e-16 1
0.4425    0.812076180491444    0.323269849590463     1.13534603008191    0.676730150409537                  1.2                    1     1.13534603008191                    1                    0 1
0.4475    0.794342454788701    0.338047954342749     1.13239040913145    0.661952045657251                  1.2                    1     1.13239040913145                    1                    0 1
0.4525     0.77641693654633    0.352985886211392     1.12940282275772    0.647014113788608                  1.2                    1     1.12940282275772                    1 -2.22044604925031e-16 1
0.4575    0.758317316086663    0.368068903261114     1.12638621934778    0.631931096738886                  1.2                    1     1.12638621934778                    1                    0 1
0.4625    0.740061455549899    0.383282120375084     1.12334357592498    0.616717879624916                  1.2                    1     1.12334357592498                    1                    0 1
0.4675    0.721667371266332    0.398610523944723     1.12027789521106    0.601389476055277                  1.2                    1     1.12027789521106                    1 -2.22044604925031e-16 1
0.4725    0.703153215976405    0.414038986686329     1.11719220266273    0.585961013313671                  1.2                    1     1.11719220266273                    1                    0 1
0.4775    0.684537260916148    0.429552282569877     1.11408954348602    0.570447717430123                  1.2                    1     1.11408954348602                    1 -2.22044604925031e-16 1
0.4825    0.665837877785674    0.445135101845272     1.11097297963095    0.554864898154728                  1.2                    1     1.11097297963095                    1 -2.22044604925031e-16 1
0.4875    0.647073520618528    0.460772066151226     1.10784558676975    0.539227933848774                  1.2                    1     1.10784558676975                    1 -2.22044604925031e-16 1
0.4925    0.628262707569788    0.476447743691843     1.10471045126163    0.523552256308156                  1.2                    1     1.10471045126163                    1                    0 1
0.4975    0.609424002640873    0.492146664465939     1.10157066710681    0.507853335534061                  1.2                    1     1.10157066710681                    1 -4.44089209850063e-16 1
0.5025    0.590575997359127    0.507853335534061     1.09842933289319    0.492146664465939                  1.2                    1     1.09842933289319                    1 -2.22044604925031e-16 1
0.5075    0.571737292430212    0.523552256308156     1.09528954873837    0.476447743691844                  1.2                    1     1.09528954873837                    1 -2.22044604925031e-16 1
0.5125    0.552926479381472    0.539227933848773     1.09215441323025    0.460772066151227                  1.2                    1     1.09215441323024                    1                    0 1
0.5175    0.534162122214326    0.554864898154728     1.08902702036905    0.445135101845272                  1.2                    1     1.08902702036905                    1 -2.22044604925031e-16 1
0.5225    0.515462739083852    0.570447717430123     1.08591045651398    0.429552282569877                  1.2                    1     1.08591045651398                    1 -2.22044604925031e-16 1
0.5275    0.496846784023595    0.585961013313671     1.08280779733727    0.414038986686329                  1.2                    1     1.08280779733727                    1                    0 1
0.5325    0.478332628733668    0.601389476055276     1.07972210478894    0.398610523944724                  1.2                    1     1.07972210478894                    1 -2.22044604925031e-16 1
0.5375    0.459938544450101    0.616717879624916     1.07665642407502    0.383282120375084                  1.2                    1     1.07665642407502                    1 -2.22044604925031e-16 1
0.5425    0.441682683913338    0.631931096738885     1.07361378065222    0.368068903261115                  1.2                    1     1.07361378065222                    1 -2.22044604925031e-16 1
0.5475     0.42358306345367    0.647014113788608     1.07059717724228    0.352985886211392                  1.2                    1     1.07059717724228                    1 -2.22044604925031e-16 1
0.5525    0.405657545211299    0.661952045657251     1.06760959086855    0.338047954342749                  1.2                    1     1.06760959086855                    1 -3.33066907387547e-16 1
0.5575    0.387923819508555    0.676730150409537     1.06465396991809    0.323269849590463                  1.2                    1     1.06465396991809                    1 -1.11022302462516e-16 1
0.5625     0.37039938739169    0.691333843840258     1.06173323123195    0.308666156159742                  1.2                    1     1.06173323123195                    1                    0 1
0.5675    0.353101543359451    0.705748713867124     1.05885025722657    0.294251286132876                  1.2                    1     1.05885025722657                    1                    0 1
0.5725    0.336047358295503    0.719960534753747     1.05600789304925    0.280039465246253                  1.2                    1     1.05600789304925                    1                    0 1
0.5775     0.31925366262153    0.733955281148725     1.05320894377025    0.266044718851275                  1.2                    1     1.05320894377025                    1 -1.11022302462516e-16 1
0.5825    0.302737029687633    0.747719141926973     1.05045617161461    0.252280858073027                  1.2                    1     1.05045617161461                    1 -1.11022302462516e-16 1
0.5875    0.286513759416441    0.761238533819632     1.04775229323607    0.238761466180368                  1.2                    1     1.04775229323607                    1 -1.11022302462516e-16 1
0.5925    0.270599862217052    0.774500114819123     1.04509997703618    0.225499885180877                  1.2                    1     1.04509997703618                    1 -1.11022302462516e-16 1
0.5975    0.255011043184695    0.787490797346087     1.04250184053078    0.212509202653913                  1.2                    1     1.04250184053078                    1 -1.11022302462516e-16 1
0.6025    0.239762686601693    0.800197761165256     1.03996044776695    0.199802238834744                  1.2                    1     1.03996044776695                    1 -1.11022302462516e-16 1
0.6075    0.224869840755037    0.812608466037469     1.03747830679251    0.187391533962531                  1.2                    1     1.03747830679251                    1 -1.11022302462516e-16 1
0.6125    0.210347203085543    0.824710664095381     1.03505786718092    0.175289335904619                  1.2                    1     1.03505786718092                    1 -1.11022302462516e-16 1
0.6175    0.196209105683251    0.836492411930624     1.03270151761388    0.163507588069376                  1.2                    1     1.03270151761388                    1 -1.11022302462516e-16 1
0.6225    0.182469501143385    0.847942082380513      1.0304115835239    0.152057917619487                  1.2                    1      1.0304115835239                    1                    0 1
0.6275    0.169141948796822    0.859048376002648     1.02819032479947    0.140951623997351                  1.2                    1     1.02819032479947                    1 -1.11022302462516e-16 1
0.6325    0.156239601328673    0.869800332226106     1.02603993355478    0.130199667773894                  1.2                    1     1.02603993355478                    1 -1.11022302462516e-16 1
0.6375    0.143775191798171    0.880187340168191     1.02396253196636    0.119812659831809                  1.2                    1     1.02396253196636                    1 -2.22044604925031e-16 1
0.6425    0.131761021072675    0.890199149106104     1.02196017017878    0.109800850893896                  1.2                    1     1.02196017017878                    1 -1.11022302462516e-16 1
0.6475    0.120208945688204    0.899825878593163     1.02003482428137    0.100174121406837                  1.2                    1     1.02003482428137                    1 -1.11022302462516e-16 1
0.6525    0.109130366148462    0.909058028209615     1.01818839435808   0.0909419717903851                  1.2                    1     1.01818839435808                    1 -1.11022302462516e-16 1
0.6575   0.0985362156739233    0.917886486938397     1.01642270261232   0.0821135130616028                  1.2                    1     1.01642270261232                    1 -1.11022302462516e-16 1
0.6625   0.0884369494120574    0.926302542156619     1.01473949156868   0.0736974578433812                  1.2                    1     1.01473949156868                    1                    0 1
0.6675   0.0788425341193666    0.934297888233861     1.01314042235323   0.0657021117661388                  1.2                    1     1.01314042235323                    1 -1.11022302462516e-16 1
0.6725   0.0697624383253961    0.941864634728837     1.01162707305423   0.0581353652711635                  1.2                    1     1.01162707305423                    1 2.22044604925031e-16 1
0.6775   0.0612056229884425    0.948995314176298     1.01020093716474    0.051004685823702                  1.2                    1     1.01020093716474                    1 -3.33066907387547e-16 1
0.6825   0.0531805326521653    0.955682889456529     1.00886342210869   0.0443171105434711                  1.2                    1     1.00886342210869                    1 -1.11022302462516e-16 1
0.6875   0.0456950871118464    0.961920760740128     1.00761584785197    0.038079239259872                  1.2                    1     1.00761584785197                    1 -1.11022302462516e-16 1
0.6925    0.038756673598505    0.967702772001246     1.00645944559975   0.0322972279987541                  1.2                    1     1.00645944559975                    1 -1.11022302462516e-16 1
0.6975   0.0323721394885936    0.973023217092839     1.00539535658143   0.0269767829071613                  1.2                    1     1.00539535658143                    1 -1.11022302462516e-16 1
0.7025   0.0265477855464652    0.977876845377946     1.00442463092441   0.0221231546220543                  1.2                    1     1.00442463092441                    1                    0 1
0.7075   0.0212893597062771    0.982258866911436     1.00354822661771   0.0177411330885643                  1.2                    1     1.00354822661771                    1 -1.11022302462516e-16 1
0.7125    0.016602051399477    0.986164957167103     1.00276700856658   0.0138350428328975                  1.2                    1     1.00276700856658                    1                    0 1
0.7175   0.0124904864334574    0.989591261305452     1.00208174773891   0.0104087386945478                  1.2                    1     1.00208174773891                    1 -1.11022302462516e-16 1
0.7225  0.00895872242644508    0.992534397977962     1.00149312040441  0.00746560202203761     1.19999999999999                    1     1.00149312040441                    1 -1.11022302462516e-16 1
0.7275  0.00601024480311948    0.994991462664067     1.00100170746719  0.00500853733593287     1.20000000000001                    1     1.00100170746719                    1 -1.11022302462516e-16 1
0.7325  0.00364796335492103    0.996960030537566     1.00060799389249  0.00303996946243423     1.19999999999998                    1     1.00060799389249                    1                    0 1
0.7375  0.00187420936843734    0.998438158859635     1.00031236822807   0.0015618411403644     1.20000000000004                    1     1.00031236822807                    1 -2.22044604925031e-16 1
0.7425 0.000690733324705236    0.999424388896079     1.00011512222078 0.000575611103921014     1.20000000000003                    1     1.00011512222078                    1 -1.11022302462516e-16 1
0.7475 9.87031716969648e-05    0.999917747356919     1.00001645052862 8.22526430808157e-05     1.19999999999983                    1     1.00001645052862                    1                    0 1