TITLE=FvSolution
VARIABLES=X Y RHO1Z1 RHO2Z2 Z1 RHO1 RHO2 RHO U V PRE theta lambdaX lambdaY 
ZONE T=TA, I=128, J=128, DATAPACKING = POINT
0.00195312 0.00195312 1000.17 9.61405e-07 0.999999 1000.17 1.17498 1000.17 0.000447917 -0.000463395 11749.8 0 0 0 
0.00195312 0.00585938 1000.17 9.68457e-07 0.999999 1000.17 1.17196 1000.17 0.000448336 -0.000891107 11719.6 0 0 0 
0.00195312 0.00976562 1000.17 9.9103e-07 0.999999 1000.17 1.17013 1000.17 0.000449323 -0.00151119 11701.3 0 0 0 
0.00195312 0.0136719 1000.17 1.01508e-06 0.999999 1000.17 1.16743 1000.17 0.000450811 -0.00205908 11674.3 0 0 0 
0.00195312 0.0175781 1000.16 1.02389e-06 0.999999 1000.17 1.16513 1000.16 0.000452621 -0.00266804 11651.3 0 0 0 
0.00195312 0.0214844 1000.16 1.02033e-06 0.999999 1000.16 1.16253 1000.16 0.000454566 -0.00325642 11625.3 0 0 0 
0.00195312 0.0253906 1000.16 1.01482e-06 0.999999 1000.16 1.16007 1000.16 0.000456512 -0.0038669 11600.7 0 0 0 
0.00195312 0.0292969 1000.16 1.0096e-06 0.999999 1000.16 1.15751 1000.16 0.000458411 -0.00447318 11575.1 0 0 0 
0.00195312 0.0332031 1000.15 1.00525e-06 0.999999 1000.15 1.15499 1000.15 0.000460287 -0.00508992 11549.9 0 0 0 
0.00195312 0.0371094 1000.15 1.00214e-06 0.999999 1000.15 1.15243 1000.15 0.000462216 -0.00570852 11524.3 0 0 0 
0.00195312 0.0410156 1000.15 1.00032e-06 0.999999 1000.15 1.14988 1000.15 0.000464286 -0.00633435 11498.8 0 0 0 
0.00195312 0.0449219 1000.15 9.99575e-07 0.999999 1000.15 1.14731 1000.15 0.00046657 -0.00696495 11473.1 0 0 0 
0.00195312 0.0488281 1000.14 9.99549e-07 0.999999 1000.14 1.14473 1000.14 0.000469112 -0.00760266 11447.3 0 0 0 
0.00195312 0.0527344 1000.14 9.99902e-07 0.999999 1000.14 1.14215 1000.14 0.000471925 -0.00824715 11421.5 0 0 0 
0.00195312 0.0566406 1000.14 1.00037e-06 0.999999 1000.14 1.13956 1000.14 0.000475 -0.00889968 11395.6 0 0 0 
0.00195312 0.0605469 1000.14 1.00077e-06 0.999999 1000.14 1.13696 1000.14 0.00047832 -0.00956057 11369.6 0 0 0 
0.00195312 0.0644531 1000.13 1.00103e-06 0.999999 1000.13 1.13436 1000.13 0.000481866 -0.0102306 11343.6 0 0 0 
0.00195312 0.0683594 1000.13 1.00114e-06 0.999999 1000.13 1.13175 1000.13 0.000485628 -0.0109103 11317.5 0 0 0 
0.00195312 0.0722656 1000.13 1.00111e-06 0.999999 1000.13 1.12913 1000.13 0.000489599 -0.0116002 11291.3 0 0 0 
0.00195312 0.0761719 1000.13 1.001e-06 0.999999 1000.13 1.12651 1000.13 0.000493782 -0.0123009 11265.1 0 0 0 
0.00195312 0.0800781 1000.12 1.00088e-06 0.999999 1000.12 1.12388 1000.12 0.000498182 -0.0130129 11238.8 0 0 0.00488626 
0.00195312 0.0839844 1000.12 1.00077e-06 0.999999 1000.12 1.12125 1000.12 0.000502807 -0.0137369 11212.5 0 0 0.00488626 
0.00195312 0.0878906 1000.12 1.00071e-06 0.999999 1000.12 1.11862 1000.12 0.000507661 -0.0144733 11186.2 0 0 0 
0.00195312 0.0917969 1000.12 1.00071e-06 0.999999 1000.12 1.11598 1000.12 0.000512747 -0.0152228 11159.8 0 0 0 
0.00195312 0.0957031 1000.11 1.00074e-06 0.999999 1000.11 1.11334 1000.11 0.000518068 -0.015986 11133.4 0 0 0 
0.00195312 0.0996094 1000.11 1.00078e-06 0.999999 1000.11 1.11069 1000.11 0.000523624 -0.0167635 11106.9 0 0 0 
0.00195312 0.103516 1000.11 1.0008e-06 0.999999 1000.11 1.10804 1000.11 0.000529415 -0.0175557 11080.4 0 0 0 
0.00195312 0.107422 1000.1 1.0008e-06 0.999999 1000.11 1.10539 1000.1 0.000535441 -0.0183634 11053.9 0 0 0.00260255 
0.00195312 0.111328 1000.1 1.00076e-06 0.999999 1000.1 1.10274 1000.1 0.000541705 -0.019187 11027.4 0 0 0.00260255 
0.00195312 0.115234 1000.1 1.0007e-06 0.999999 1000.1 1.10008 1000.1 0.00054821 -0.0200272 11000.8 0 0 0 
0.00195312 0.119141 1000.1 1.00065e-06 0.999999 1000.1 1.09742 1000.1 0.00055496 -0.0208845 10974.2 0 0 0 
0.00195312 0.123047 1000.09 1.00063e-06 0.999999 1000.09 1.09476 1000.09 0.000561961 -0.0217595 10947.6 0 0 0 
0.00195312 0.126953 1000.09 1.00069e-06 0.999999 1000.09 1.0921 1000.09 0.000569216 -0.0226529 10921 0 0 0 
0.00195312 0.130859 1000.09 1.00084e-06 0.999999 1000.09 1.08944 1000.09 0.000576729 -0.0235652 10894.4 0 0 0 
0.00195312 0.134766 1000.09 1.00105e-06 0.999999 1000.09 1.08678 1000.09 0.0005845 -0.024497 10867.8 0 0 0 
0.00195312 0.138672 1000.08 1.00121e-06 0.999999 1000.08 1.08411 1000.08 0.000592528 -0.025449 10841.1 0 0 0 
0.00195312 0.142578 1000.08 1.0012e-06 0.999999 1000.08 1.08145 1000.08 0.00060081 -0.0264218 10814.5 0 0 0 
0.00195312 0.146484 1000.08 1.00092e-06 0.999999 1000.08 1.07879 1000.08 0.00060935 -0.027416 10787.9 0 0 4.1122e-05 
0.00195312 0.150391 1000.08 1.0004e-06 0.999999 1000.08 1.07614 1000.08 0.000618158 -0.0284322 10761.4 0 0 4.1122e-05 
0.00195312 0.154297 1000.07 9.99841e-07 0.999999 1000.07 1.07348 1000.07 0.000627259 -0.0294711 10734.8 0 0 0 
0.00195312 0.158203 1000.07 9.99586e-07 0.999999 1000.07 1.07083 1000.07 0.000636687 -0.0305333 10708.3 0 0 0 
0.00195312 0.162109 1000.07 1.00004e-06 0.999999 1000.07 1.06819 1000.07 0.00064648 -0.0316196 10681.9 0 0 0 
0.00195312 0.166016 1000.06 1.0016e-06 0.999999 1000.07 1.06555 1000.06 0.000656667 -0.032731 10655.5 0 0 0 
0.00195312 0.169922 1000.06 1.00472e-06 0.999999 1000.06 1.06291 1000.06 0.00066725 -0.0338682 10629.1 0 0 0 
0.00195312 0.173828 1000.06 1.01015e-06 0.999999 1000.06 1.06029 1000.06 0.0006782 -0.0350321 10602.9 0 0 0 
0.00195312 0.177734 1000.06 1.01969e-06 0.999999 1000.06 1.05767 1000.06 0.000689461 -0.0362235 10576.7 0 0 0 
0.00195312 0.181641 1000.05 1.03718e-06 0.999999 1000.06 1.05505 1000.05 0.000700981 -0.0374431 10550.5 0 0 0 
0.00195312 0.185547 1000.05 1.07007e-06 0.999999 1000.05 1.05245 1000.05 0.000712763 -0.0386914 10524.5 0 -0.000156662 0 
0.00195312 0.189453 1000.05 1.13318e-06 0.999999 1000.05 1.04985 1000.05 0.000724934 -0.0399691 10498.5 0 0 0 
0.00195312 0.193359 1000.05 1.25742e-06 0.999999 1000.05 1.04727 1000.05 0.000737806 -0.0412775 10472.7 0 0 0 
0.00195312 0.197266 1000.04 1.84474e-06 0.999998 1000.04 1.04469 1000.04 0.000751896 -0.0426184 10446.9 0 0 0 
0.00195312 0.201172 1000.04 4.12085e-06 0.999996 1000.04 1.04211 1000.04 0.000767865 -0.043995 10421.1 0 0 0.000105279 
0.00195312 0.205078 1000.03 8.98266e-06 0.999991 1000.04 1.03955 1000.03 0.000786362 -0.0454114 10395.5 0 0 0.000105279 
0.00195312 0.208984 1000.02 1.68439e-05 0.999984 1000.04 1.037 1000.02 0.00080776 -0.046873 10370 0 0 0 
0.00195312 0.212891 1000.01 2.77231e-05 0.999973 1000.03 1.03446 1000.01 0.000831855 -0.0483852 10344.6 0 0 0 
0.00195312 0.216797 999.992 4.16915e-05 0.99996 1000.03 1.03192 999.992 0.000857651 -0.0499524 10319.2 0 -0.00154185 0 
0.00195312 0.220703 999.971 6.02179e-05 0.999942 1000.03 1.0294 999.971 0.000883376 -0.0515759 10294 0 0.000722219 0 
0.00195312 0.224609 999.92 0.000109773 0.999893 1000.03 1.02689 999.92 0.000906893 -0.0532527 10268.9 0 0 0 
0.00195312 0.228516 999.711 0.000321337 0.999686 1000.02 1.02439 999.711 0.000926914 -0.0549701 10243.9 0 0 0 
0.00195312 0.232422 999.168 0.000872933 0.999146 1000.02 1.0219 999.169 0.000945036 -0.0567039 10219 0 0 0 
0.00195312 0.236328 998.209 0.00184598 0.998189 1000.02 1.01943 998.21 0.000966545 -0.0584311 10194.3 0 0 0 
0.00195312 0.240234 996.862 0.00320822 0.996845 1000.02 1.01697 996.865 0.000998152 -0.0601469 10169.7 0 0 0 
0.00195312 0.244141 995.165 0.0049197 0.995151 1000.01 1.01454 995.17 0.00104385 -0.06187 10145.4 0 0 0 
0.00195312 0.248047 992.931 0.00716654 0.992919 1000.01 1.01213 992.939 0.00110165 -0.063624 10121.3 0 0 0 
0.00195312 0.251953 989.102 0.0110143 0.989092 1000.01 1.00975 989.113 0.0011634 -0.0654088 10097.5 0 0 0 
0.00195312 0.255859 979.488 0.0206723 0.97948 1000.01 1.00744 979.508 0.00121838 -0.0671256 10074.4 0 0 0.35 
0.00195312 0.259766 955.853 0.0443854 0.955848 1000.01 1.00528 955.897 0.00125795 -0.0685074 10052.8 0 0 0.35 
0.00195312 0.263672 899.166 0.101174 0.899163 1000 1.00335 899.267 0.00127816 -0.0691779 10033.5 0 0 0.35 
0.00195312 0.267578 738.79 0.261686 0.738789 1000 1.00182 739.052 0.00127647 -0.0685328 10018.2 0 0 0.35 
0.00195312 0.271484 425.933 0.574616 0.425933 1000 1.00096 426.508 0.0012442 -0.0662624 10009.6 0 -0.000232841 0.35 
0.00195312 0.275391 169.644 0.830767 0.169644 1000 1.0005 170.475 0.00117189 -0.0641728 10005 0 0 0.35 
0.00195312 0.279297 67.0959 0.933165 0.0670959 1000 1.00028 68.029 0.00103443 -0.063529 10002.8 0 0 0.35 
0.00195312 0.283203 30.0076 0.970151 0.0300076 1000 1.00016 30.9778 0.000843107 -0.0637064 10001.6 0 0.00137995 0.35 
0.00195312 0.287109 14.8224 0.985279 0.0148224 1000 1.0001 15.8077 0.000622311 -0.064124 10001 0 0 0.299034 
0.00195312 0.291016 8.45132 0.991616 0.00845132 1000 1.00007 9.44294 0.000392515 -0.0644803 10000.7 0 0 0 
0.00195312 0.294922 5.59765 0.994446 0.00559765 1000 1.00004 6.5921 0.000162731 -0.0646281 10000.4 0 0 0 
0.00195312 0.298828 3.87995 0.996147 0.00387995 1000 1.00003 4.8761 -5.67761e-05 -0.0644993 10000.3 0 0 0 
0.00195312 0.302734 2.5795 0.997434 0.0025795 1000 1.00001 3.57694 -0.000242263 -0.064098 10000.1 0 0 0 
0.00195312 0.306641 1.53392 0.99847 0.00153392 1000 1 2.53239 -0.000395631 -0.0634523 10000 0 0 0 
0.00195312 0.310547 0.753696 0.999244 0.000753696 1000 0.999997 1.75294 -0.000539656 -0.0625764 9999.97 0 0 0 
0.00195312 0.314453 0.271338 0.999721 0.000271338 1000 0.999993 1.27106 -0.000694507 -0.0614419 9999.93 0 0 0 
0.00195312 0.318359 0.0638717 0.999925 6.38717e-05 1000 0.999989 1.0638 -0.00086871 -0.0600053 9999.89 0 0 0 
0.00195312 0.322266 0.0271278 0.999959 2.71278e-05 1000 0.999986 1.02709 -0.00104981 -0.0582325 9999.86 0 0 0 
0.00195312 0.326172 0.0232402 0.99996 2.32402e-05 1000 0.999983 1.0232 -0.00120899 -0.0561343 9999.83 0 0 0 
0.00195312 0.330078 0.0187061 0.999961 1.87061e-05 1000 0.99998 1.01867 -0.00132085 -0.0537841 9999.8 0 0 0 
0.00195312 0.333984 0.0136751 0.999963 1.36751e-05 1000 0.999977 1.01364 -0.00137586 -0.051287 9999.77 0 0 0 
0.00195312 0.337891 0.00876971 0.999966 8.76971e-06 1000 0.999974 1.00874 -0.00137946 -0.0487525 9999.74 0 0 0 
0.00195312 0.341797 0.00480546 0.999967 4.80546e-06 1000 0.999972 1.00477 -0.00134515 -0.0462688 9999.72 0 0 0 
0.00195312 0.345703 0.00232003 0.999967 2.32003e-06 1000 0.999969 1.00229 -0.00128859 -0.0438951 9999.69 0 0 0 
0.00195312 0.349609 0.00127839 0.999965 1.27839e-06 1000 0.999966 1.00124 -0.00122419 -0.04166 9999.66 0 0 0 
0.00195312 0.353516 0.00111001 0.999962 1.11001e-06 1000 0.999964 1.00107 -0.00116312 -0.0395673 9999.64 0 0 0 
0.00195312 0.357422 0.00109912 0.99996 1.09912e-06 1000 0.999961 1.00106 -0.00111215 -0.0376025 9999.61 0 0 0 
0.00195312 0.361328 0.00107467 0.999957 1.07467e-06 1000 0.999959 1.00103 -0.0010734 -0.0357427 9999.59 0 0 0 
0.00195312 0.365234 0.00104535 0.999955 1.04535e-06 1000 0.999956 1.001 -0.00104523 -0.0339648 9999.56 0 0 0 
0.00195312 0.369141 0.00102074 0.999953 1.02074e-06 1000 0.999954 1.00097 -0.00102382 -0.0322514 9999.54 0 0 0 
0.00195312 0.373047 0.00100663 0.99995 1.00663e-06 1000 0.999951 1.00096 -0.00100502 -0.0305933 9999.51 0 0 0 
0.00195312 0.376953 0.00100201 0.999948 1.00201e-06 1000 0.999949 1.00095 -0.000985759 -0.0289886 9999.49 0 0 0 
0.00195312 0.380859 0.00100095 0.999946 1.00095e-06 1000 0.999947 1.00095 -0.000964678 -0.02744 9999.47 0 0 0 
0.00195312 0.384766 0.00100052 0.999943 1.00052e-06 1000 0.999944 1.00094 -0.000942066 -0.025951 9999.44 0 0 0 
0.00195312 0.388672 0.00100027 0.999941 1.00027e-06 1000 0.999942 1.00094 -0.000919156 -0.0245235 9999.42 0 0 0 
0.00195312 0.392578 0.00100012 0.999939 1.00012e-06 1000 0.99994 1.00094 -0.000897304 -0.0231566 9999.4 0 0 0 
0.00195312 0.396484 0.00100002 0.999937 1.00002e-06 1000 0.999938 1.00094 -0.000877402 -0.0218471 9999.38 0 0 0.000614305 
0.00195312 0.400391 0.000999974 0.999935 9.99974e-07 1000 0.999936 1.00094 -0.000859676 -0.0205908 9999.36 0 0 0.00118946 
0.00195312 0.404297 0.000999949 0.999933 9.99949e-07 1000 0.999934 1.00093 -0.000843832 -0.0193837 9999.34 0 0 0.000575153 
0.00195312 0.408203 0.000999938 0.999931 9.99938e-07 1000 0.999932 1.00093 -0.000829338 -0.0182224 9999.32 0 0 0 
0.00195312 0.412109 0.000999934 0.999929 9.99934e-07 1000 0.99993 1.00093 -0.000815697 -0.0171048 9999.3 0 0 0 
0.00195312 0.416016 0.000999934 0.999927 9.99934e-07 1000 0.999928 1.00093 -0.000802602 -0.0160294 9999.28 0 0 -0.000562822 
0.00195312 0.419922 0.000999934 0.999925 9.99934e-07 1000 0.999926 1.00093 -0.000789961 -0.0149951 9999.26 0 0 -0.000562822 
0.00195312 0.423828 0.000999934 0.999924 9.99934e-07 1000 0.999925 1.00092 -0.00077784 -0.0140008 9999.25 0 0 0 
0.00195312 0.427734 0.000999932 0.999922 9.99932e-07 1000 0.999923 1.00092 -0.000766366 -0.0130449 9999.23 0 0 0 
0.00195312 0.431641 0.000999927 0.99992 9.99927e-07 1000 0.999921 1.00092 -0.000755644 -0.0121258 9999.21 0 0 0 
0.00195312 0.435547 0.000999921 0.999918 9.99921e-07 1000 0.999919 1.00092 -0.000745717 -0.0112416 9999.19 0 0 5.32594e-05 
0.00195312 0.439453 0.000999915 0.999916 9.99915e-07 1000 0.999917 1.00092 -0.000736565 -0.0103901 9999.17 0 0 5.32594e-05 
0.00195312 0.443359 0.00099991 0.999915 9.99911e-07 1000 0.999916 1.00091 -0.000728137 -0.00956961 9999.16 0 0 0 
0.00195312 0.447266 0.000999907 0.999913 9.99907e-07 1000 0.999914 1.00091 -0.000720381 -0.00877795 9999.14 0 0 -0.00077953 
0.00195312 0.451172 0.000999904 0.999911 9.99904e-07 1000 0.999912 1.00091 -0.000713266 -0.00801363 9999.12 0 0 -0.00077953 
0.00195312 0.455078 0.000999904 0.999909 9.99905e-07 1000 0.99991 1.00091 -0.000706773 -0.00727424 9999.1 0 0 0 
0.00195312 0.458984 0.000999909 0.999907 9.99909e-07 1000 0.999908 1.00091 -0.000700883 -0.0065589 9999.08 0 0 0 
0.00195312 0.462891 0.000999919 0.999906 9.99919e-07 1000 0.999907 1.00091 -0.000695554 -0.00586413 9999.07 0 0 0.000204321 
0.00195312 0.466797 0.000999935 0.999904 9.99935e-07 1000 0.999905 1.0009 -0.000690711 -0.00519091 9999.05 0 0 0.000204321 
0.00195312 0.470703 0.000999952 0.999902 9.99952e-07 1000 0.999903 1.0009 -0.000686262 -0.00453277 9999.03 0 0 0 
0.00195312 0.474609 0.000999966 0.9999 9.99967e-07 1000 0.999901 1.0009 -0.000682135 -0.00389625 9999.01 0 0 0 
0.00195312 0.478516 0.000999969 0.999898 9.99969e-07 1000 0.999899 1.0009 -0.000678322 -0.00326616 9998.99 0 0 0 
0.00195312 0.482422 0.000999953 0.999895 9.99953e-07 1000 0.999896 1.0009 -0.000674908 -0.00266488 9998.96 0 0 0 
0.00195312 0.486328 0.000999914 0.999893 9.99914e-07 1000 0.999894 1.00089 -0.000672056 -0.00205173 9998.94 0 0 0 
0.00195312 0.490234 0.000999858 0.999891 9.99858e-07 1000 0.999892 1.00089 -0.000669933 -0.00149882 9998.92 0 0 0 
0.00195312 0.494141 0.000999801 0.999889 9.99801e-07 1000 0.99989 1.00089 -0.000668643 -0.000888186 9998.9 0 0 0 
0.00195312 0.498047 0.000999762 0.999886 9.99762e-07 1000 0.999887 1.00089 -0.000668135 -0.000458693 9998.87 0 0 0 
0.00585938 0.00195312 1000.17 9.61072e-07 0.999999 1000.18 1.1751 1000.17 0.0013323 -0.000463247 11751 0 0 0 
0.00585938 0.00585938 1000.17 9.68123e-07 0.999999 1000.17 1.17208 1000.17 0.00133356 -0.000890651 11720.8 0 0 0 
0.00585938 0.00976562 1000.17 9.90692e-07 0.999999 1000.17 1.17025 1000.17 0.00133654 -0.00151045 11702.5 0 0 0 
0.00585938 0.0136719 1000.17 1.01474e-06 0.999999 1000.17 1.16755 1000.17 0.00134101 -0.00205809 11675.5 0 0 0 
0.00585938 0.0175781 1000.16 1.02355e-06 0.999999 1000.17 1.16525 1000.16 0.00134644 -0.00266681 11652.5 0 0 0 
0.00585938 0.0214844 1000.16 1.01998e-06 0.999999 1000.16 1.16265 1000.16 0.00135228 -0.00325498 11626.5 0 0 0 
0.00585938 0.0253906 1000.16 1.01448e-06 0.999999 1000.16 1.16019 1000.16 0.00135811 -0.00386525 11601.9 0 0 0 
0.00585938 0.0292969 1000.16 1.00926e-06 0.999999 1000.16 1.15763 1000.16 0.00136379 -0.00447133 11576.3 0 0 0 
0.00585938 0.0332031 1000.15 1.00491e-06 0.999999 1000.16 1.15511 1000.15 0.0013694 -0.00508785 11551.1 0 0 0 
0.00585938 0.0371094 1000.15 1.0018e-06 0.999999 1000.15 1.15255 1000.15 0.00137517 -0.00570624 11525.5 0 0 0 
0.00585938 0.0410156 1000.15 9.99986e-07 0.999999 1000.15 1.15 1000.15 0.00138135 -0.00633183 11500 0 0 0 
0.00585938 0.0449219 1000.15 9.99237e-07 0.999999 1000.15 1.14743 1000.15 0.00138819 -0.0069622 11474.3 0 0 0 
0.00585938 0.0488281 1000.14 9.99211e-07 0.999999 1000.14 1.14485 1000.14 0.00139579 -0.00759966 11448.5 0 0 0 
0.00585938 0.0527344 1000.14 9.99564e-07 0.999999 1000.14 1.14227 1000.14 0.00140421 -0.0082439 11422.7 0 0 0 
0.00585938 0.0566406 1000.14 1.00003e-06 0.999999 1000.14 1.13968 1000.14 0.00141342 -0.00889619 11396.8 0 0 0 
0.00585938 0.0605469 1000.14 1.00043e-06 0.999999 1000.14 1.13708 1000.14 0.00142336 -0.00955683 11370.8 0 0 0 
0.00585938 0.0644531 1000.13 1.0007e-06 0.999999 1000.13 1.13448 1000.13 0.00143398 -0.0102266 11344.8 0 0 0 
0.00585938 0.0683594 1000.13 1.0008e-06 0.999999 1000.13 1.13187 1000.13 0.00144525 -0.010906 11318.7 0 0 0 
0.00585938 0.0722656 1000.13 1.00077e-06 0.999999 1000.13 1.12925 1000.13 0.00145715 -0.0115957 11292.5 0 0 0 
0.00585938 0.0761719 1000.13 1.00067e-06 0.999999 1000.13 1.12663 1000.13 0.00146968 -0.0122961 11266.3 0 0 0 
0.00585938 0.0800781 1000.12 1.00054e-06 0.999999 1000.12 1.12401 1000.12 0.00148287 -0.0130079 11240.1 0 0 0.0049034 
0.00585938 0.0839844 1000.12 1.00044e-06 0.999999 1000.12 1.12138 1000.12 0.00149673 -0.0137316 11213.8 0 0 0.0049034 
0.00585938 0.0878906 1000.12 1.00038e-06 0.999999 1000.12 1.11874 1000.12 0.00151128 -0.0144678 11187.4 0 0 0 
0.00585938 0.0917969 1000.12 1.00037e-06 0.999999 1000.12 1.1161 1000.12 0.00152652 -0.0152171 11161 0 0 0 
0.00585938 0.0957031 1000.11 1.0004e-06 0.999999 1000.11 1.11346 1000.11 0.00154247 -0.01598 11134.6 0 0 0 
0.00585938 0.0996094 1000.11 1.00044e-06 0.999999 1000.11 1.11082 1000.11 0.00155912 -0.0167572 11108.2 0 0 0 
0.00585938 0.103516 1000.11 1.00047e-06 0.999999 1000.11 1.10817 1000.11 0.00157647 -0.0175492 11081.7 0 0 0 
0.00585938 0.107422 1000.1 1.00047e-06 0.999999 1000.11 1.10552 1000.1 0.00159454 -0.0183566 11055.2 0 0 0.00225413 
0.00585938 0.111328 1000.1 1.00043e-06 0.999999 1000.1 1.10286 1000.1 0.00161331 -0.01918 11028.6 0 0 0.00225413 
0.00585938 0.115234 1000.1 1.00037e-06 0.999999 1000.1 1.10021 1000.1 0.0016328 -0.0200199 11002.1 0 0 0 
0.00585938 0.119141 1000.1 1.00032e-06 0.999999 1000.1 1.09755 1000.1 0.00165303 -0.0208769 10975.5 0 0 0 
0.00585938 0.123047 1000.09 1.0003e-06 0.999999 1000.09 1.09489 1000.09 0.001674 -0.0217517 10948.9 0 0 0 
0.00585938 0.126953 1000.09 1.00036e-06 0.999999 1000.09 1.09223 1000.09 0.00169574 -0.0226448 10922.3 0 0 0 
0.00585938 0.130859 1000.09 1.00051e-06 0.999999 1000.09 1.08956 1000.09 0.00171825 -0.0235569 10895.6 0 0 0 
0.00585938 0.134766 1000.09 1.00071e-06 0.999999 1000.09 1.0869 1000.09 0.00174153 -0.0244884 10869 0 0 0 
0.00585938 0.138672 1000.08 1.00088e-06 0.999999 1000.08 1.08424 1000.08 0.00176558 -0.0254402 10842.4 0 0 0 
0.00585938 0.142578 1000.08 1.00087e-06 0.999999 1000.08 1.08158 1000.08 0.00179039 -0.0264127 10815.8 0 0 0 
0.00585938 0.146484 1000.08 1.0006e-06 0.999999 1000.08 1.07892 1000.08 0.00181598 -0.0274067 10789.2 0 0 4.1122e-05 
0.00585938 0.150391 1000.08 1.00008e-06 0.999999 1000.08 1.07626 1000.08 0.00184237 -0.0284226 10762.6 0 0 4.1122e-05 
0.00585938 0.154297 1000.07 9.99523e-07 0.999999 1000.07 1.07361 1000.07 0.00186963 -0.0294612 10736.1 0 0 0 
0.00585938 0.158203 1000.07 9.99288e-07 0.999999 1000.07 1.07096 1000.07 0.00189787 -0.0305231 10709.6 0 0 0 
0.00585938 0.162109 1000.07 9.99764e-07 0.999999 1000.07 1.06831 1000.07 0.0019272 -0.0316092 10683.1 0 0 0 
0.00585938 0.166016 1000.06 1.00131e-06 0.999999 1000.07 1.06567 1000.06 0.0019577 -0.0327202 10656.7 0 0 0 
0.00585938 0.169922 1000.06 1.00433e-06 0.999999 1000.06 1.06304 1000.06 0.00198938 -0.0338571 10630.4 0 0 0 
0.00585938 0.173828 1000.06 1.00968e-06 0.999999 1000.06 1.06041 1000.06 0.00202216 -0.0350206 10604.1 0 0 -0.000375888 
0.00585938 0.177734 1000.06 1.01922e-06 0.999999 1000.06 1.05779 1000.06 0.00205587 -0.0362115 10577.9 0 0 -0.000375888 
0.00585938 0.181641 1000.05 1.03678e-06 0.999999 1000.06 1.05518 1000.05 0.00209036 -0.0374305 10551.8 0 0 0 
0.00585938 0.185547 1000.05 1.06982e-06 0.999999 1000.05 1.05258 1000.05 0.00212565 -0.0386782 10525.8 0 -0.000156662 0 
0.00585938 0.189453 1000.05 1.13292e-06 0.999999 1000.05 1.04998 1000.05 0.0021621 -0.0399554 10499.8 0 0 0 
0.00585938 0.193359 1000.05 1.25718e-06 0.999999 1000.05 1.04739 1000.05 0.00220062 -0.0412631 10473.9 0 0 0 
0.00585938 0.197266 1000.04 1.84398e-06 0.999998 1000.04 1.04481 1000.04 0.00224272 -0.0426032 10448.1 0 0 0 
0.00585938 0.201172 1000.04 4.1162e-06 0.999996 1000.04 1.04224 1000.04 0.0022903 -0.0439786 10422.4 0 0 0.000105279 
0.00585938 0.205078 1000.03 8.97001e-06 0.999991 1000.04 1.03968 1000.03 0.0023452 -0.045393 10396.8 0 0 0.000105279 
0.00585938 0.208984 1000.02 1.68206e-05 0.999984 1000.04 1.03713 1000.02 0.00240844 -0.0468511 10371.3 0 0 0 
0.00585938 0.212891 1000.01 2.7696e-05 0.999973 1000.03 1.03459 1000.01 0.00247929 -0.0483575 10345.9 0 0 0 
0.00585938 0.216797 999.992 4.16647e-05 0.99996 1000.03 1.03205 999.992 0.0025547 -0.0499156 10320.5 0 -0.000928061 0 
0.00585938 0.220703 999.971 6.01867e-05 0.999942 1000.03 1.02953 999.971 0.00262946 -0.0515258 10295.3 0 0 0 
0.00585938 0.224609 999.92 0.000109738 0.999893 1000.03 1.02701 999.92 0.00269777 -0.0531846 10270.1 0 0 0 
0.00585938 0.228516 999.711 0.000321315 0.999686 1000.02 1.0245 999.711 0.00275692 -0.054881 10245 0 0 0 
0.00585938 0.232422 999.168 0.000872885 0.999146 1000.02 1.022 999.169 0.00281201 -0.0565936 10220 0 0 0 
0.00585938 0.236328 998.209 0.00184576 0.99819 1000.02 1.01951 998.211 0.00287757 -0.0583014 10195.1 0 0 0 
0.00585938 0.240234 996.863 0.00320786 0.996846 1000.02 1.01704 996.866 0.00297217 -0.0599985 10170.4 0 0 0 
0.00585938 0.244141 995.166 0.00491931 0.995151 1000.01 1.01459 995.171 0.00310807 -0.0617011 10145.9 0 0 0 
0.00585938 0.248047 992.932 0.00716604 0.99292 1000.01 1.01217 992.939 0.00328164 -0.0634331 10121.7 0 0 0 
0.00585938 0.251953 989.103 0.0110136 0.989093 1000.01 1.00979 989.114 0.00347162 -0.0652013 10097.9 0 0 0 
0.00585938 0.255859 979.489 0.0206713 0.979482 1000.01 1.00747 979.51 0.0036469 -0.0669185 10074.7 0 0 0.35 
0.00585938 0.259766 955.854 0.0443849 0.955849 1000.01 1.0053 955.899 0.00377676 -0.0683268 10053 0 0 0.35 
0.00585938 0.263672 899.165 0.101178 0.899162 1000 1.00337 899.266 0.00384148 -0.0690463 10033.7 0 0 0.35 
0.00585938 0.267578 738.775 0.261704 0.738774 1000 1.00183 739.037 0.00383679 -0.0684615 10018.3 0 0 0.35 
0.00585938 0.271484 425.901 0.574651 0.425901 1000 1.00096 426.476 0.00373453 -0.0662406 10009.6 0 -0.000232841 0.35 
0.00585938 0.275391 169.624 0.830788 0.169624 1000 1.0005 170.455 0.00350049 -0.0641766 10005 0 0 0.35 
0.00585938 0.279297 67.0888 0.933173 0.0670888 1000 1.00028 68.022 0.00307823 -0.0635327 10002.8 0 0 0.35 
0.00585938 0.283203 30.0053 0.970154 0.0300053 1000 1.00016 30.9755 0.00250486 -0.0637021 10001.6 0 0.00137995 0.35 
0.00585938 0.287109 14.8226 0.985279 0.0148226 1000 1.0001 15.8079 0.00184982 -0.0641187 10001 0 0 0.297403 
0.00585938 0.291016 8.45193 0.991615 0.00845193 1000 1.00007 9.44355 0.00117225 -0.0644919 10000.7 0 0 0 
0.00585938 0.294922 5.59774 0.994446 0.00559774 1000 1.00004 6.59219 0.000506723 -0.0646774 10000.4 0 0 0 
0.00585938 0.298828 3.87986 0.996146 0.00387986 1000 1.00003 4.87601 -0.000116897 -0.0646143 10000.3 0 0 0 
0.00585938 0.302734 2.57935 0.997434 0.00257935 1000 1.00001 3.57679 -0.000668682 -0.064287 10000.1 0 0 0 
0.00585938 0.306641 1.5338 0.99847 0.0015338 1000 1 2.53227 -0.00115134 -0.0636775 10000 0 0 0 
0.00585938 0.310547 0.753642 0.999244 0.000753642 1000 0.999997 1.75289 -0.00160658 -0.0627837 9999.97 0 0 0 
0.00585938 0.314453 0.271327 0.999721 0.000271327 1000 0.999992 1.27105 -0.00208356 -0.0615889 9999.92 0 0 0 
0.00585938 0.318359 0.0638628 0.999925 6.38628e-05 1000 0.999989 1.06379 -0.00260667 -0.0600738 9999.89 0 0 0 
0.00585938 0.322266 0.0270985 0.999959 2.70985e-05 1000 0.999986 1.02706 -0.00314092 -0.0582287 9999.86 0 0 0 
0.00585938 0.326172 0.023194 0.99996 2.3194e-05 1000 0.999983 1.02315 -0.00360502 -0.0560808 9999.83 0 0 0 
0.00585938 0.330078 0.0186613 0.999961 1.86613e-05 1000 0.99998 1.01862 -0.003928 -0.053708 9999.8 0 0 0 
0.00585938 0.333984 0.0136483 0.999963 1.36483e-05 1000 0.999977 1.01361 -0.00408451 -0.0512113 9999.77 0 0 0 
0.00585938 0.337891 0.00876216 0.999965 8.76216e-06 1000 0.999974 1.00873 -0.00409204 -0.0486907 9999.74 0 0 0 
0.00585938 0.341797 0.00480474 0.999966 4.80474e-06 1000 0.999971 1.00477 -0.00399027 -0.0462244 9999.71 0 0 0 
0.00585938 0.345703 0.00231648 0.999966 2.31648e-06 1000 0.999969 1.00228 -0.00382411 -0.0438647 9999.69 0 0 0 
0.00585938 0.349609 0.00127159 0.999965 1.27159e-06 1000 0.999966 1.00124 -0.00363478 -0.0416377 9999.66 0 0 0 
0.00585938 0.353516 0.00110434 0.999962 1.10434e-06 1000 0.999963 1.00107 -0.0034546 -0.0395475 9999.63 0 0 0 
0.00585938 0.357422 0.00109517 0.99996 1.09517e-06 1000 0.999961 1.00105 -0.00330347 -0.0375817 9999.61 0 0 0 
0.00585938 0.361328 0.00107274 0.999957 1.07274e-06 1000 0.999958 1.00103 -0.0031879 -0.0357197 9999.58 0 0 0 
0.00585938 0.365234 0.00104496 0.999955 1.04496e-06 1000 0.999956 1.001 -0.00310332 -0.0339401 9999.56 0 0 0 
0.00585938 0.369141 0.00102099 0.999952 1.02099e-06 1000 0.999953 1.00097 -0.00303874 -0.0322261 9999.53 0 0 0 
0.00585938 0.373047 0.00100669 0.99995 1.00669e-06 1000 0.999951 1.00096 -0.00298203 -0.0305689 9999.51 0 0 0 
0.00585938 0.376953 0.00100166 0.999948 1.00166e-06 1000 0.999949 1.00095 -0.00292414 -0.0289661 9999.49 0 0 0 
0.00585938 0.380859 0.00100069 0.999945 1.00069e-06 1000 0.999946 1.00095 -0.00286107 -0.0274197 9999.46 0 0 0 
0.00585938 0.384766 0.00100042 0.999943 1.00042e-06 1000 0.999944 1.00094 -0.0027936 -0.0259326 9999.44 0 0 0 
0.00585938 0.388672 0.00100025 0.999941 1.00025e-06 1000 0.999942 1.00094 -0.00272528 -0.0245066 9999.42 0 0 0 
0.00585938 0.392578 0.00100012 0.999939 1.00012e-06 1000 0.99994 1.00094 -0.00266008 -0.0231406 9999.4 0 0 0 
0.00585938 0.396484 0.00100003 0.999937 1.00003e-06 1000 0.999938 1.00094 -0.00260061 -0.0218318 9999.38 0 0.000799491 0.000460729 
0.00585938 0.400391 0.00099997 0.999935 9.9997e-07 1000 0.999936 1.00093 -0.00254759 -0.0205761 9999.36 0 0 0.000892093 
0.00585938 0.404297 0.000999944 0.999933 9.99944e-07 1000 0.999934 1.00093 -0.00250017 -0.0193696 9999.34 0 0 0.000431365 
0.00585938 0.408203 0.000999935 0.999931 9.99935e-07 1000 0.999932 1.00093 -0.00245682 -0.0182091 9999.32 0 -0.000256485 0 
0.00585938 0.412109 0.000999932 0.999929 9.99932e-07 1000 0.99993 1.00093 -0.00241608 -0.0170924 9999.3 0 0 0 
0.00585938 0.416016 0.000999932 0.999927 9.99932e-07 1000 0.999928 1.00093 -0.00237703 -0.016018 9999.28 0 0 -0.000562822 
0.00585938 0.419922 0.000999933 0.999925 9.99933e-07 1000 0.999926 1.00093 -0.00233937 -0.0149846 9999.26 0 0 -0.000562822 
0.00585938 0.423828 0.000999932 0.999923 9.99933e-07 1000 0.999924 1.00092 -0.00230328 -0.0139911 9999.24 0 0 0 
0.00585938 0.427734 0.00099993 0.999922 9.9993e-07 1000 0.999923 1.00092 -0.00226911 -0.013036 9999.23 0 0 0 
0.00585938 0.431641 0.000999926 0.99992 9.99926e-07 1000 0.999921 1.00092 -0.00223717 -0.0121176 9999.21 0 0 0 
0.00585938 0.435547 0.00099992 0.999918 9.9992e-07 1000 0.999919 1.00092 -0.00220757 -0.011234 9999.19 0 0 5.32594e-05 
0.00585938 0.439453 0.000999914 0.999916 9.99914e-07 1000 0.999917 1.00092 -0.00218028 -0.0103832 9999.17 0 0 5.32594e-05 
0.00585938 0.443359 0.000999909 0.999914 9.99909e-07 1000 0.999915 1.00091 -0.00215514 -0.00956325 9999.15 0 0 0 
0.00585938 0.447266 0.000999905 0.999913 9.99905e-07 1000 0.999914 1.00091 -0.00213199 -0.00877217 9999.14 0 0 -0.000584648 
0.00585938 0.451172 0.000999903 0.999911 9.99903e-07 1000 0.999912 1.00091 -0.00211077 -0.0080084 9999.12 0 0 -0.000961149 
0.00585938 0.455078 0.000999903 0.999909 9.99903e-07 1000 0.99991 1.00091 -0.00209141 -0.00726955 9999.1 0 -0.00152705 -0.000376502 
0.00585938 0.458984 0.000999907 0.999907 9.99908e-07 1000 0.999908 1.00091 -0.00207386 -0.00655471 9999.08 0 0 0 
0.00585938 0.462891 0.000999918 0.999905 9.99918e-07 1000 0.999906 1.00091 -0.00205802 -0.00586039 9999.06 0 0 0.000153241 
0.00585938 0.466797 0.000999933 0.999903 9.99933e-07 1000 0.999904 1.0009 -0.00204365 -0.00518758 9999.04 0 0 0.000153241 
0.00585938 0.470703 0.000999951 0.999901 9.99951e-07 1000 0.999902 1.0009 -0.0020305 -0.0045298 9999.02 0 0 0 
0.00585938 0.474609 0.000999965 0.999899 9.99965e-07 1000 0.9999 1.0009 -0.00201833 -0.0038936 9999 0 0 0 
0.00585938 0.478516 0.000999968 0.999897 9.99968e-07 1000 0.999898 1.0009 -0.00200709 -0.00326382 9998.98 0 0 0 
0.00585938 0.482422 0.000999951 0.999895 9.99951e-07 1000 0.999896 1.0009 -0.00199701 -0.00266286 9998.96 0 0 0 
0.00585938 0.486328 0.000999913 0.999893 9.99913e-07 1000 0.999894 1.00089 -0.00198853 -0.00205007 9998.94 0 0 0 
0.00585938 0.490234 0.000999857 0.999891 9.99857e-07 1000 0.999892 1.00089 -0.00198216 -0.00149757 9998.92 0 0.000468219 0 
0.00585938 0.494141 0.0009998 0.999889 9.998e-07 1000 0.99989 1.00089 -0.00197825 -0.000887387 9998.9 0 0 0 
0.00585938 0.498047 0.000999761 0.999886 9.99761e-07 1000 0.999887 1.00089 -0.0019767 -0.000458446 9998.87 0 0 0 
0.00976562 0.00195312 1000.17 9.60709e-07 0.999999 1000.18 1.17507 1000.17 0.00221901 -0.000462879 11750.7 0 0 0 
0.00976562 0.00585938 1000.17 9.67757e-07 0.999999 1000.17 1.17206 1000.17 0.00222113 -0.000889521 11720.6 0 0 0 
0.00976562 0.00976562 1000.17 9.90319e-07 0.999999 1000.17 1.17022 1000.17 0.00222613 -0.00150861 11702.2 0 0 0 
0.00976562 0.0136719 1000.17 1.01436e-06 0.999999 1000.17 1.16752 1000.17 0.00223363 -0.00205559 11675.2 0 0 0 
0.00976562 0.0175781 1000.16 1.02316e-06 0.999999 1000.17 1.16522 1000.16 0.00224272 -0.00266369 11652.2 0 0 0 
0.00976562 0.0214844 1000.16 1.0196e-06 0.999999 1000.16 1.16262 1000.16 0.00225246 -0.00325128 11626.2 0 0 0 
0.00976562 0.0253906 1000.16 1.0141e-06 0.999999 1000.16 1.16017 1000.16 0.00226219 -0.00386099 11601.7 0 0 0 
0.00976562 0.0292969 1000.16 1.00888e-06 0.999999 1000.16 1.1576 1000.16 0.00227165 -0.00446651 11576 0 0 0 
0.00976562 0.0332031 1000.15 1.00453e-06 0.999999 1000.16 1.15509 1000.15 0.00228098 -0.00508246 11550.9 0 0 0 