TITLE=FvSolution
VARIABLES=X Y RHO1Z1 RHO2Z2 Z1 RHO1 RHO2 RHO U V PRE theta lambdaX lambdaY 
ZONE T=TA, I=128, J=128, DATAPACKING = POINT
0.00195312 0.00195312 1000.17 6.44431e-07 0.999999 1000.17 1.16932 1000.17 -0.000647284 0.000495328 11693.2 0 0 0 
0.00195312 0.00585938 1000.17 6.76747e-07 0.999999 1000.17 1.16637 1000.17 -0.000645391 0.00197913 11663.7 0 0 0 
0.00195312 0.00976562 1000.16 7.43111e-07 0.999999 1000.16 1.16441 1000.16 -0.000641129 0.00326259 11644.1 0 0 0 
0.00195312 0.0136719 1000.16 8.38277e-07 0.999999 1000.16 1.16165 1000.16 -0.000635009 0.00460472 11616.5 0 0 0 
0.00195312 0.0175781 1000.16 9.54382e-07 0.999999 1000.16 1.15931 1000.16 -0.000628074 0.0058818 11593.1 0 0 0 
0.00195312 0.0214844 1000.16 1.08261e-06 0.999999 1000.16 1.15668 1000.16 -0.000621549 0.00716962 11566.8 0 0 0 
0.00195312 0.0253906 1000.15 1.21136e-06 0.999999 1000.15 1.15419 1000.15 -0.000616644 0.00842941 11541.9 0 0 0 
0.00195312 0.0292969 1000.15 1.32495e-06 0.999999 1000.15 1.1516 1000.15 -0.000614391 0.00969032 11516 0 0 0 
0.00195312 0.0332031 1000.15 1.40336e-06 0.999999 1000.15 1.14904 1000.15 -0.0006155 0.0109445 11490.4 0 0 0 
0.00195312 0.0371094 1000.15 1.42455e-06 0.999999 1000.15 1.14644 1000.15 -0.000620166 0.0122071 11464.4 0 0 0 
0.00195312 0.0410156 1000.14 1.36902e-06 0.999999 1000.14 1.14383 1000.14 -0.000627917 0.0134801 11438.3 0 0 0 
0.00195312 0.0449219 1000.14 1.22623e-06 0.999999 1000.14 1.14121 1000.14 -0.000637531 0.0147715 11412.1 0 0 0 
0.00195312 0.0488281 1000.14 1.00137e-06 0.999999 1000.14 1.13857 1000.14 -0.000647127 0.0160813 11385.7 0 0 0 
0.00195312 0.0527344 1000.14 7.20615e-07 0.999999 1000.14 1.13591 1000.14 -0.000654466 0.0174083 11359.1 0 0 0 
0.00195312 0.0566406 1000.13 4.32528e-07 1 1000.13 1.13324 1000.13 -0.000657472 0.0187452 11332.4 0 0 0 
0.00195312 0.0605469 1000.13 2.03929e-07 1 1000.13 1.13056 1000.13 -0.000654903 0.0200823 11305.6 0 0 0 
0.00195312 0.0644531 1000.13 1.09266e-07 1 1000.13 1.12786 1000.13 -0.000647028 0.0214082 11278.6 0 0 0 
0.00195312 0.0683594 1000.12 2.14289e-07 1 1000.13 1.12514 1000.12 -0.0006361 0.0227143 11251.4 0 0 0 
0.00195312 0.0722656 1000.12 5.567e-07 1 1000.12 1.12241 1000.12 -0.00062641 0.0239985 11224.1 0 0 0 
0.00195312 0.0761719 1000.12 1.12821e-06 0.999999 1000.12 1.11966 1000.12 -0.000623743 0.0252689 11196.6 0 0 0 
0.00195312 0.0800781 1000.12 1.86354e-06 0.999998 1000.12 1.1169 1000.12 -0.000634157 0.0265456 11169 0 0 0 
0.00195312 0.0839844 1000.11 2.6417e-06 0.999998 1000.11 1.11412 1000.11 -0.000662193 0.0278596 11141.2 0 0 0 
0.00195312 0.0878906 1000.11 3.30285e-06 0.999997 1000.11 1.11133 1000.11 -0.000708981 0.0292479 11113.3 0 0 0 
0.00195312 0.0917969 1000.11 3.68094e-06 0.999997 1000.11 1.10852 1000.11 -0.000770987 0.0307451 11085.2 0 0 0 
0.00195312 0.0957031 1000.1 3.64745e-06 0.999997 1000.11 1.1057 1000.1 -0.000840148 0.0323737 11057 0 0 0 
0.00195312 0.0996094 1000.1 3.15745e-06 0.999997 1000.1 1.10286 1000.1 -0.000905607 0.034138 11028.6 0 0 0 
0.00195312 0.103516 1000.1 2.28621e-06 0.999998 1000.1 1.1 1000.1 -0.000956849 0.0360181 11000 0 0 0 
0.00195312 0.107422 1000.1 1.24338e-06 0.999999 1000.1 1.09718 1000.1 -0.00098735 0.0379751 10971.8 0 0 0 
0.00195312 0.111328 1000.09 3.55119e-07 1 1000.09 1.09465 1000.09 -0.000997485 0.0399357 10946.5 0 0 0 
0.00195312 0.115234 1000.09 1.07498e-08 1 1000.09 1.09389 1000.09 -0.000996348 0.0418195 10938.9 1 0 0 
0.00195312 0.119141 1000.09 5.80696e-07 0.999999 1000.09 1.0879 1000.09 -0.00100299 0.0439837 10879 0 0 0 
0.00195312 0.123047 1000.08 2.8198e-06 0.999997 1000.09 1.0855 1000.08 -0.00101674 0.0460111 10855 0 0 0 
0.00195312 0.126953 1000.08 7.10795e-06 0.999993 1000.08 1.08238 1000.08 -0.00103174 0.0480924 10823.8 0 0 0 
0.00195312 0.130859 1000.07 1.33873e-05 0.999988 1000.08 1.07951 1000.07 -0.00104198 0.0501672 10795.1 0 0 0 
0.00195312 0.134766 1000.06 2.11623e-05 0.99998 1000.08 1.07646 1000.06 -0.00104446 0.0522698 10764.6 0 0 0 
0.00195312 0.138672 1000.05 2.95758e-05 0.999972 1000.07 1.07348 1000.05 -0.00104015 0.0543596 10734.8 0 0 0 
0.00195312 0.142578 1000.04 3.75887e-05 0.999965 1000.07 1.07042 1000.04 -0.00103304 0.0564419 10704.2 0 0 0 
0.00195312 0.146484 1000.03 4.42387e-05 0.999959 1000.07 1.06738 1000.03 -0.00102841 0.0585076 10673.8 0 0 0 
0.00195312 0.150391 1000.02 4.89553e-05 0.999954 1000.06 1.06429 1000.02 -0.00103114 0.0605716 10642.9 0 0 0 
0.00195312 0.154297 1000.01 5.18669e-05 0.999951 1000.06 1.06119 1000.01 -0.00104457 0.0626493 10611.9 0 0 0 
0.00195312 0.158203 1000.01 5.40335e-05 0.999949 1000.06 1.05806 1000.01 -0.00106988 0.0647651 10580.6 0 0 0 
0.00195312 0.162109 1000 5.75397e-05 0.999945 1000.05 1.05491 1000 -0.00110609 0.066941 10549.1 0 0 0 
0.00195312 0.166016 999.99 6.54235e-05 0.999938 1000.05 1.05173 999.99 -0.00115053 0.069197 10517.3 0 0 0 
0.00195312 0.169922 999.971 8.14803e-05 0.999922 1000.05 1.04853 999.971 -0.00119954 0.0715455 10485.3 0 0 0 
0.00195312 0.173828 999.94 0.000110077 0.999895 1000.05 1.04529 999.94 -0.00124924 0.073992 10452.9 0 0 0 
0.00195312 0.177734 999.892 0.000156229 0.99985 1000.04 1.04202 999.892 -0.00129611 0.0765343 10420.2 0 0 0 
0.00195312 0.181641 999.821 0.00022631 0.999782 1000.04 1.03871 999.821 -0.00133752 0.079164 10387.1 0 0 0 
0.00195312 0.185547 999.717 0.000329899 0.999681 1000.04 1.03537 999.717 -0.00137206 0.0818689 10353.7 0 0 0 
0.00195312 0.189453 999.564 0.000483399 0.999532 1000.03 1.03199 999.564 -0.00139954 0.0846347 10319.9 0 0 0 
0.00195312 0.193359 999.332 0.00071612 0.999304 1000.03 1.02856 999.333 -0.00142057 0.0874478 10285.6 0 0 0 
0.00195312 0.197266 998.972 0.00107949 0.998947 1000.03 1.02508 998.973 -0.00143607 0.0902956 10250.8 0 0 0 
0.00195312 0.201172 998.397 0.00165979 0.998375 1000.02 1.02156 998.398 -0.00144809 0.0931685 10215.6 0 0 0 
0.00195312 0.205078 997.47 0.00259354 0.997452 1000.02 1.01799 997.473 -0.00146137 0.0960634 10179.9 0 0 0 
0.00195312 0.208984 995.996 0.00407585 0.995982 1000.01 1.01438 996 -0.00148089 0.0989877 10143.8 0 0 0 
0.00195312 0.212891 993.746 0.00633208 0.993735 1000.01 1.01073 993.752 -0.00150883 0.101953 10107.3 0 0 0 
0.00195312 0.216797 990.532 0.00954112 0.990526 1000.01 1.00703 990.542 -0.00154576 0.104972 10070.3 0 0 0 
0.00195312 0.220703 986.274 0.0137747 0.986271 1000 1.00332 986.288 -0.00159125 0.108052 10033.2 0 0 0 
0.00195312 0.224609 980.979 0.0190129 0.980979 1000 0.999588 980.998 -0.00164314 0.111198 9995.88 0 0 0 
0.00195312 0.228516 974.653 0.0252382 0.974657 999.996 0.995882 974.679 -0.0016977 0.114404 9958.82 0 0 0 
0.00195312 0.232422 967.097 0.0326397 0.967105 999.992 0.99224 967.13 -0.00175058 0.117652 9922.4 0 0 0 
0.00195312 0.236328 957.543 0.0419679 0.957554 999.989 0.988727 957.585 -0.00179819 0.120908 9887.27 0 0 0 
0.00195312 0.240234 944.12 0.0550526 0.944134 999.985 0.98544 944.175 -0.00183921 0.124114 9854.4 0 0 0 
0.00195312 0.244141 922.983 0.0756555 0.923 999.983 0.982534 923.059 -0.00187601 0.127175 9825.34 0 0 0 
0.00195312 0.248047 887.424 0.110335 0.887441 999.98 0.980243 887.534 -0.00191558 0.129918 9802.43 0 0 0 
0.00195312 0.251953 830.621 0.165786 0.830639 999.979 0.978891 830.787 -0.00196948 0.132026 9788.91 0 0 0 
0.00195312 0.255859 751.417 0.243303 0.751433 999.979 0.978823 751.66 -0.00204955 0.132955 9788.23 0 0 0 
0.00195312 0.259766 654.519 0.338652 0.654532 999.98 0.980269 654.858 -0.00216132 0.132043 9802.69 0 0 0 
0.00195312 0.263672 547.21 0.445096 0.547219 999.983 0.983026 547.655 -0.00230054 0.129099 9830.26 0 0 0 
0.00195312 0.267578 437.269 0.555066 0.437275 999.986 0.986389 437.824 -0.00245356 0.124705 9863.89 0 0 0 
0.00195312 0.271484 332.278 0.660792 0.332281 999.99 0.989625 332.938 -0.00260629 0.120125 9896.25 0 0 0 
0.00195312 0.275391 239.394 0.754729 0.239396 999.992 0.992276 240.149 -0.00275052 0.116521 9922.76 0 0 0 
0.00195312 0.279297 164.712 0.830428 0.164713 999.994 0.994182 165.542 -0.00288439 0.114729 9941.82 0 0 0 
0.00195312 0.283203 111.608 0.884354 0.111609 999.995 0.995455 112.492 -0.00300417 0.114824 9954.55 0 0 0 
0.00195312 0.287109 78.2584 0.91833 0.0782586 999.996 0.996299 79.1767 -0.00310174 0.116474 9962.99 0 0 0 
0.00195312 0.291016 58.2396 0.938826 0.0582398 999.997 0.996885 59.1784 -0.00316869 0.119334 9968.85 0 0 0 
0.00195312 0.294922 45.4294 0.952012 0.0454295 999.997 0.99732 46.3814 -0.00320139 0.12302 9973.2 0 0 0 
0.00195312 0.298828 36.2532 0.961489 0.0362533 999.998 0.997658 37.2147 -0.00319765 0.127269 9976.58 0 0 0 
0.00195312 0.302734 28.9301 0.969057 0.0289301 999.998 0.997927 29.8991 -0.00315252 0.131852 9979.27 0 0 0 
0.00195312 0.306641 22.6954 0.975489 0.0226955 999.998 0.998143 23.6709 -0.00305593 0.136577 9981.43 0 0 0 
0.00195312 0.310547 17.3185 0.981023 0.0173185 999.998 0.998312 18.2995 -0.00289323 0.141263 9983.12 0 0 0 
0.00195312 0.314453 12.7785 0.985684 0.0127786 999.998 0.998442 13.7642 -0.00264688 0.145712 9984.42 0 0 0 
0.00195312 0.318359 9.08981 0.989463 0.00908983 999.999 0.99854 10.0793 -0.00230201 0.149708 9985.4 0 0 0 
0.00195312 0.322266 6.23179 0.992387 0.0062318 999.999 0.99861 7.22418 -0.00185535 0.153019 9986.1 0 0 0 
0.00195312 0.326172 4.12895 0.994537 0.00412896 999.999 0.998661 5.12349 -0.00132048 0.155425 9986.61 0 0 0 
0.00195312 0.330078 2.65637 0.996044 0.00265638 999.999 0.998697 3.65242 -0.000723426 0.156754 9986.97 0 0 0 
0.00195312 0.333984 1.6662 0.997058 0.0016662 999.999 0.998722 2.66326 -9.56141e-05 0.1569 9987.22 0 0 0 
0.00195312 0.337891 1.02059 0.997722 0.0010206 999.999 0.998741 2.01832 0.000518836 0.155835 9987.41 0 0 0 
0.00195312 0.341797 0.610793 0.998145 0.000610794 999.999 0.998755 1.60894 0.00108072 0.153618 9987.55 0 0 0 
0.00195312 0.345703 0.358633 0.998409 0.000358634 999.999 0.998767 1.35704 0.00157529 0.150361 9987.67 0 0 0 
0.00195312 0.349609 0.210021 0.998567 0.000210021 999.999 0.998776 1.20859 0.00198222 0.146215 9987.76 0 0 0 
0.00195312 0.353516 0.127733 0.998657 0.000127733 999.999 0.998785 1.12639 0.00228227 0.141373 9987.85 0 0 0 
0.00195312 0.357422 0.0859798 0.998706 8.59799e-05 999.999 0.998792 1.08469 0.00246976 0.136054 9987.92 0 0 0 
0.00195312 0.361328 0.0668762 0.998732 6.68763e-05 999.999 0.998799 1.06561 0.00255527 0.130474 9987.99 0 0 0 
0.00195312 0.365234 0.0583237 0.998747 5.83238e-05 999.999 0.998805 1.05707 0.00255763 0.124813 9988.05 0 0 0 
0.00195312 0.369141 0.052738 0.998759 5.27381e-05 999.999 0.998811 1.0515 0.00249358 0.119221 9988.11 0 0 0 
0.00195312 0.373047 0.0461409 0.998771 4.61409e-05 999.999 0.998817 1.04491 0.00237387 0.113812 9988.17 0 0 0 
0.00195312 0.376953 0.0373217 0.998785 3.73217e-05 999.999 0.998822 1.03611 0.00220728 0.108698 9988.22 0 0 0 
0.00195312 0.380859 0.0269471 0.9988 2.69472e-05 999.999 0.998827 1.02575 0.00200814 0.103945 9988.27 0 0 0 
0.00195312 0.384766 0.0166445 0.998815 1.66445e-05 999.999 0.998831 1.01546 0.00180213 0.0996167 9988.31 0 0 0 
0.00195312 0.388672 0.00815382 0.998827 8.15383e-06 999.999 0.998835 1.00698 0.00162597 0.0956547 9988.35 0 0 0 
0.00195312 0.392578 0.00265428 0.998836 2.65428e-06 999.999 0.998839 1.00149 0.00151789 0.0920402 9988.39 0 0 0 
0.00195312 0.396484 0.00032913 0.998841 3.2913e-07 999.999 0.998842 0.999171 0.00149919 0.0884918 9988.42 1 0 0 
0.00195312 0.400391 0.000177166 0.998846 1.77166e-07 999.999 0.998846 0.999023 0.00156457 0.0848643 9988.46 0 0 0 
0.00195312 0.404297 0.0010085 0.998847 1.0085e-06 999.999 0.998848 0.999856 0.001675 0.0811225 9988.48 0 0 0 
0.00195312 0.408203 0.00198092 0.998849 1.98092e-06 999.999 0.998851 1.00083 0.00177977 0.0771185 9988.51 0 0 0 
0.00195312 0.412109 0.00261318 0.998851 2.61319e-06 999.999 0.998853 1.00146 0.00183721 0.0729742 9988.53 0 0 0 
0.00195312 0.416016 0.00273781 0.998853 2.73781e-06 999.999 0.998855 1.00159 0.00182904 0.0687667 9988.55 0 0 0 
0.00195312 0.419922 0.0024134 0.998855 2.41341e-06 999.999 0.998857 1.00127 0.00176391 0.0646436 9988.57 0 0 0 
0.00195312 0.423828 0.00182458 0.998857 1.82458e-06 999.999 0.998859 1.00068 0.00166668 0.0606808 9988.59 0 0 0 
0.00195312 0.427734 0.00119003 0.998859 1.19003e-06 999.999 0.99886 1.00005 0.00156363 0.0569222 9988.6 0 0 0 
0.00195312 0.431641 0.000691183 0.99886 6.91184e-07 999.999 0.998861 0.999552 0.00147347 0.0533551 9988.61 0 0 0 
0.00195312 0.435547 0.000429261 0.998862 4.29261e-07 999.999 0.998862 0.999291 0.00140474 0.0499462 9988.62 0 0 0 
0.00195312 0.439453 0.000414065 0.998862 4.14065e-07 999.999 0.998863 0.999276 0.00135753 0.0466503 9988.63 0 0 0 
0.00195312 0.443359 0.000581568 0.998862 5.81569e-07 999.999 0.998863 0.999444 0.00132707 0.0434296 9988.63 0 0 0 
0.00195312 0.447266 0.00083012 0.998862 8.30121e-07 999.999 0.998863 0.999693 0.00130701 0.0402566 9988.63 0 0 0 
0.00195312 0.451172 0.00106064 0.998862 1.06064e-06 999.999 0.998863 0.999923 0.0012916 0.0371165 9988.63 0 0 0 
0.00195312 0.455078 0.00120688 0.998862 1.20688e-06 999.999 0.998863 1.00007 0.00127662 0.0340047 9988.63 0 0 0 
0.00195312 0.458984 0.00124762 0.998861 1.24762e-06 999.999 0.998863 1.00011 0.00125989 0.0309221 9988.63 0 0 0 
0.00195312 0.462891 0.00120091 0.998861 1.20092e-06 999.999 0.998862 1.00006 0.00124122 0.0278738 9988.62 0 0 0 
0.00195312 0.466797 0.00110699 0.99886 1.107e-06 999.999 0.998861 0.999967 0.00122193 0.0248604 9988.61 0 0 0 
0.00195312 0.470703 0.00100894 0.998859 1.00894e-06 999.999 0.99886 0.999868 0.00120408 0.0218847 9988.6 0 0 0 
0.00195312 0.474609 0.000938331 0.998858 9.38332e-07 999.999 0.998859 0.999797 0.00118963 0.0189355 9988.59 0 0 0 
0.00195312 0.478516 0.000908957 0.998857 9.08958e-07 999.999 0.998858 0.999766 0.00117977 0.0160154 9988.58 0 0 0 
0.00195312 0.482422 0.000917928 0.998855 9.17929e-07 999.999 0.998856 0.999773 0.00117469 0.0130964 9988.56 0 0 0 
0.00195312 0.486328 0.000951295 0.998854 9.51296e-07 999.999 0.998855 0.999805 0.00117362 0.0101999 9988.55 0 0 0 
0.00195312 0.490234 0.000991175 0.998852 9.91176e-07 999.999 0.998853 0.999843 0.00117502 0.00726133 9988.53 0 0 0 
0.00195312 0.494141 0.00102224 0.99885 1.02224e-06 999.999 0.998851 0.999872 0.00117707 0.00436544 9988.51 0 0 0 
0.00195312 0.498047 0.00103653 0.998847 1.03653e-06 999.999 0.998848 0.999884 0.00117829 0.00130505 9988.48 0 0 0 
0.00585938 0.00195312 1000.17 6.45491e-07 0.999999 1000.17 1.16919 1000.17 -0.00192855 0.000494235 11691.9 0 0 0 
0.00585938 0.00585938 1000.17 6.77865e-07 0.999999 1000.17 1.16624 1000.17 -0.00192293 0.00197595 11662.4 0 0 0 
0.00585938 0.00976562 1000.16 7.44346e-07 0.999999 1000.16 1.16428 1000.16 -0.00191033 0.00325757 11642.8 0 0 0 
0.00585938 0.0136719 1000.16 8.39678e-07 0.999999 1000.16 1.16152 1000.16 -0.00189224 0.00459832 11615.2 0 0 0 
0.00585938 0.0175781 1000.16 9.55981e-07 0.999999 1000.16 1.15918 1000.16 -0.00187175 0.00587461 11591.8 0 0 0 
0.00585938 0.0214844 1000.16 1.08442e-06 0.999999 1000.16 1.15655 1000.16 -0.00185249 0.00716225 11565.5 0 0 0 
0.00585938 0.0253906 1000.15 1.21338e-06 0.999999 1000.15 1.15406 1000.15 -0.00183804 0.00842242 11540.6 0 0 0 
0.00585938 0.0292969 1000.15 1.32714e-06 0.999999 1000.15 1.15147 1000.15 -0.00183146 0.00968414 11514.7 0 0 0 
0.00585938 0.0332031 1000.15 1.40567e-06 0.999999 1000.15 1.14891 1000.15 -0.00183486 0.0109393 11489.1 0 0 0 
0.00585938 0.0371094 1000.15 1.42688e-06 0.999999 1000.15 1.14631 1000.15 -0.0018488 0.012203 11463.1 0 0 0 
0.00585938 0.0410156 1000.14 1.37125e-06 0.999999 1000.14 1.14371 1000.14 -0.00187187 0.0134769 11437.1 0 0 0 
0.00585938 0.0449219 1000.14 1.22822e-06 0.999999 1000.14 1.14108 1000.14 -0.00190042 0.0147686 11410.8 0 0 0 
0.00585938 0.0488281 1000.14 1.00299e-06 0.999999 1000.14 1.13844 1000.14 -0.00192884 0.0160781 11384.4 0 0 0 
0.00585938 0.0527344 1000.14 7.21779e-07 0.999999 1000.14 1.13579 1000.14 -0.0019505 0.017404 11357.9 0 0 0 
0.00585938 0.0566406 1000.13 4.33236e-07 1 1000.13 1.13312 1000.13 -0.00195928 0.0187391 11331.2 0 0 0 
0.00585938 0.0605469 1000.13 2.04289e-07 1 1000.13 1.13043 1000.13 -0.00195156 0.0200741 11304.3 0 0 0 
0.00585938 0.0644531 1000.13 1.09506e-07 1 1000.13 1.12773 1000.13 -0.00192821 0.0213981 11277.3 0 0 0 
0.00585938 0.0683594 1000.12 2.14747e-07 1 1000.13 1.12502 1000.12 -0.00189601 0.022703 11250.2 0 0 0 
0.00585938 0.0722656 1000.12 5.57772e-07 1 1000.12 1.12228 1000.12 -0.00186778 0.0239875 11222.8 0 0 0 
0.00585938 0.0761719 1000.12 1.13028e-06 0.999999 1000.12 1.11954 1000.12 -0.00186071 0.02526 11195.4 0 0 0 
0.00585938 0.0800781 1000.12 1.86692e-06 0.999998 1000.12 1.11678 1000.12 -0.00189276 0.0265406 11167.8 0 0 0 
0.00585938 0.0839844 1000.11 2.64647e-06 0.999998 1000.11 1.114 1000.11 -0.00197724 0.0278601 11140 0 0 0 
0.00585938 0.0878906 1000.11 3.30886e-06 0.999997 1000.11 1.1112 1000.11 -0.0021172 0.029254 11112 0 0 0 
0.00585938 0.0917969 1000.11 3.68773e-06 0.999997 1000.11 1.10839 1000.11 -0.00230182 0.0307554 11083.9 0 0 0 
0.00585938 0.0957031 1000.1 3.65427e-06 0.999997 1000.11 1.10556 1000.1 -0.00250704 0.032385 11055.6 0 0 0 
0.00585938 0.0996094 1000.1 3.16344e-06 0.999997 1000.1 1.10272 1000.1 -0.00270082 0.0341459 11027.2 0 0 0 
0.00585938 0.103516 1000.1 2.29056e-06 0.999998 1000.1 1.09986 1000.1 -0.0028522 0.0360181 10998.6 0 0 0 
0.00585938 0.107422 1000.1 1.24569e-06 0.999999 1000.1 1.09705 1000.1 -0.00294221 0.0379637 10970.5 0 0 0 
0.00585938 0.111328 1000.09 3.55698e-07 1 1000.09 1.09452 1000.09 -0.00297417 0.0399123 10945.2 0 0 0 
0.00585938 0.115234 1000.09 1.07776e-08 1 1000.09 1.09377 1000.09 -0.00297631 0.041787 10937.7 1 0 0 
0.00585938 0.119141 1000.09 5.82275e-07 0.999999 1000.09 1.08777 1000.09 -0.00299293 0.0439466 10877.7 0 0 0 
0.00585938 0.123047 1000.08 2.82844e-06 0.999997 1000.09 1.08536 1000.08 -0.00303327 0.0459678 10853.6 0 0 0 
0.00585938 0.126953 1000.08 7.13059e-06 0.999993 1000.08 1.08225 1000.08 -0.00307909 0.0480434 10822.5 0 0 0 
0.00585938 0.130859 1000.07 1.34303e-05 0.999988 1000.08 1.07937 1000.07 -0.00311085 0.0501144 10793.7 0 0 0 
0.00585938 0.134766 1000.06 2.12296e-05 0.99998 1000.08 1.07632 1000.06 -0.00311935 0.0522152 10763.2 0 0 0 
0.00585938 0.138672 1000.05 2.96673e-05 0.999972 1000.07 1.07334 1000.05 -0.00310751 0.0543054 10733.4 0 0 0 
0.00585938 0.142578 1000.04 3.76996e-05 0.999965 1000.07 1.07029 1000.04 -0.00308715 0.05639 10702.9 0 0 0 
0.00585938 0.146484 1000.03 4.4359e-05 0.999958 1000.07 1.06725 1000.03 -0.00307386 0.0584594 10672.5 0 0 0 
0.00585938 0.150391 1000.02 4.90712e-05 0.999954 1000.06 1.06416 1000.02 -0.00308216 0.0605275 10641.6 0 0 0 
0.00585938 0.154297 1000.01 5.19623e-05 0.999951 1000.06 1.06106 1000.01 -0.00312198 0.0626088 10610.6 0 0 0 
0.00585938 0.158203 1000.01 5.40929e-05 0.999949 1000.06 1.05793 1000.01 -0.00319686 0.0647266 10579.3 0 0 0 
0.00585938 0.162109 1000 5.75517e-05 0.999945 1000.05 1.05478 1000 -0.00330399 0.066902 10547.8 0 0 0 
0.00585938 0.166016 999.989 6.53853e-05 0.999938 1000.05 1.0516 999.989 -0.00343549 0.0691542 10516 0 0 0 
0.00585938 0.169922 999.971 8.14017e-05 0.999922 1000.05 1.04839 999.971 -0.00358062 0.0714954 10483.9 0 0 0 
0.00585938 0.173828 999.94 0.000109986 0.999895 1000.05 1.04516 999.94 -0.00372789 0.0739311 10451.6 0 0 0 
0.00585938 0.177734 999.892 0.000156176 0.99985 1000.04 1.04189 999.892 -0.00386699 0.0764595 10418.9 0 0 0 
0.00585938 0.181641 999.821 0.000226378 0.999782 1000.04 1.03859 999.821 -0.00399016 0.079073 10385.9 0 0 0 
0.00585938 0.185547 999.716 0.00033022 0.999681 1000.04 1.03525 999.717 -0.00409308 0.0817599 10352.5 0 0 0 
0.00585938 0.189453 999.563 0.000484166 0.999531 1000.03 1.03187 999.563 -0.00417448 0.0845066 10318.7 0 0 0 
0.00585938 0.193359 999.331 0.000717572 0.999302 1000.03 1.02846 999.331 -0.00423502 0.0872991 10284.6 0 0 0 
0.00585938 0.197266 998.969 0.00108189 0.998945 1000.03 1.02501 998.971 -0.00427783 0.090126 10250.1 0 0 0 
0.00585938 0.201172 998.393 0.00166346 0.998372 1000.02 1.02152 998.395 -0.00431255 0.0929837 10215.2 0 0 0 
0.00585938 0.205078 997.465 0.0025988 0.997447 1000.02 1.01798 997.468 -0.00435659 0.0958744 10179.8 0 0 0 
0.00585938 0.208984 995.989 0.00408273 0.995975 1000.01 1.01438 995.994 -0.00442075 0.0988015 10143.8 0 0 0 
0.00585938 0.212891 993.738 0.0063398 0.993728 1000.01 1.01075 993.745 -0.00450995 0.101772 10107.5 0 0 0 
0.00585938 0.216797 990.526 0.00954791 0.990519 1000.01 1.00707 990.536 -0.004627 0.104797 10070.7 0 0 0 
0.00585938 0.220703 986.271 0.0137784 0.986268 1000 1.00336 986.285 -0.00477081 0.107884 10033.6 0 0 0 
0.00585938 0.224609 980.981 0.0190117 0.980981 1000 0.999641 981 -0.00493457 0.111034 9996.41 0 0 0 
0.00585938 0.228516 974.661 0.0252323 0.974665 999.996 0.995945 974.686 -0.00510711 0.11424 9959.45 0 0 0 
0.00585938 0.232422 967.107 0.0326325 0.967115 999.992 0.992314 967.14 -0.00527585 0.117484 9923.14 0 0 0 
0.00585938 0.236328 957.546 0.041968 0.957557 999.989 0.98881 957.588 -0.0054309 0.120732 9888.1 0 0 0 
0.00585938 0.240234 944.102 0.0550763 0.944115 999.986 0.985532 944.157 -0.00556955 0.123929 9855.32 0 0 0 
0.00585938 0.244141 922.915 0.0757306 0.922931 999.983 0.982633 922.991 -0.0057012 0.126981 9826.33 0 0 0 
0.00585938 0.248047 887.274 0.110493 0.887292 999.98 0.980347 887.385 -0.00584915 0.129719 9803.47 0 0 0 
0.00585938 0.251953 830.39 0.166031 0.830407 999.979 0.978997 830.556 -0.00604768 0.131825 9789.97 0 0 0 
0.00585938 0.255859 751.137 0.243603 0.751153 999.979 0.978925 751.381 -0.00632731 0.132758 9789.25 0 0 0 
0.00585938 0.259766 654.224 0.338972 0.654237 999.98 0.980361 654.563 -0.00669371 0.131865 9803.61 0 0 0 
0.00585938 0.263672 546.919 0.445415 0.546928 999.983 0.983101 547.364 -0.00711851 0.128953 9831.01 0 0 0 
0.00585938 0.267578 436.987 0.555374 0.436993 999.986 0.986441 437.542 -0.00755348 0.124595 9864.41 0 0 0 
0.00585938 0.271484 332.008 0.66108 0.332011 999.99 0.989658 332.669 -0.00796522 0.120044 9896.58 0 0 0 
0.00585938 0.275391 239.145 0.75499 0.239147 999.992 0.992294 239.9 -0.00834381 0.116454 9922.94 0 0 0 
0.00585938 0.279297 164.499 0.830646 0.1645 999.994 0.994191 165.33 -0.00869624 0.11466 9941.91 0 0 0 
0.00585938 0.283203 111.447 0.884517 0.111447 999.995 0.995459 112.331 -0.00901805 0.114743 9954.59 0 0 0 
0.00585938 0.287109 78.1468 0.918443 0.0781471 999.996 0.996301 79.0653 -0.00928622 0.11638 9963.01 0 0 0 
0.00585938 0.291016 58.1615 0.938905 0.0581617 999.997 0.996886 59.1004 -0.00947422 0.119232 9968.86 0 0 0 
0.00585938 0.294922 45.3703 0.952071 0.0453705 999.997 0.99732 46.3224 -0.00956715 0.122916 9973.2 0 0 0 
0.00585938 0.298828 36.2048 0.961538 0.0362048 999.998 0.997658 37.1663 -0.00955533 0.127164 9976.58 0 0 0 
0.00585938 0.302734 28.8881 0.9691 0.0288881 999.998 0.997928 29.8572 -0.00942298 0.131749 9979.28 0 0 0 
0.00585938 0.306641 22.6582 0.975527 0.0226583 999.998 0.998143 23.6337 -0.00913898 0.13648 9981.43 0 0 0 
0.00585938 0.310547 17.2859 0.981056 0.0172859 999.998 0.998313 18.267 -0.00865837 0.141177 9983.13 0 0 0 
0.00585938 0.314453 12.751 0.985712 0.012751 999.998 0.998443 13.7367 -0.00792671 0.145641 9984.43 0 0 0 
0.00585938 0.318359 9.0677 0.989486 0.00906772 999.999 0.99854 10.0572 -0.00689829 0.149649 9985.4 0 0 0 
0.00585938 0.322266 6.21521 0.992404 0.00621522 999.999 0.998611 7.20762 -0.00556421 0.152963 9986.11 0 0 0 
0.00585938 0.326172 4.11748 0.994549 0.00411749 999.999 0.998661 5.11203 -0.00396659 0.155361 9986.61 0 0 0 
0.00585938 0.330078 2.64909 0.996052 0.0026491 999.999 0.998697 3.64514 -0.0021869 0.156671 9986.97 0 0 0 
0.00585938 0.333984 1.66197 0.997063 0.00166198 999.999 0.998723 2.65904 -0.000330958 0.156798 9987.23 0 0 0 
0.00585938 0.337891 1.01837 0.997725 0.00101837 999.999 0.998742 2.0161 0.00148484 0.155728 9987.42 0 0 0 
0.00585938 0.341797 0.609759 0.998147 0.00060976 999.999 0.998756 1.60791 0.00316334 0.153506 9987.56 0 0 0 
0.00585938 0.345703 0.358233 0.99841 0.000358233 999.999 0.998768 1.35664 0.00463673 0.15024 9987.68 0 0 0 
0.00585938 0.349609 0.209906 0.998568 0.000209907 999.999 0.998777 1.20847 0.00584189 0.146095 9987.77 0 0 0 
0.00585938 0.353516 0.127711 0.998658 0.000127711 999.999 0.998786 1.12637 0.00672717 0.141272 9987.86 0 0 0 
0.00585938 0.357422 0.0859608 0.998707 8.59609e-05 999.999 0.998793 1.08467 0.00727991 0.13599 9987.93 0 0 0 
0.00585938 0.361328 0.0668315 0.998733 6.68316e-05 999.999 0.9988 1.06556 0.00753393 0.130455 9988 0 0 0 
0.00585938 0.365234 0.0582579 0.998748 5.8258e-05 999.999 0.998806 1.05701 0.00754458 0.124838 9988.06 0 0 0 
0.00585938 0.369141 0.0526676 0.99876 5.26677e-05 999.999 0.998812 1.05143 0.00735885 0.119281 9988.12 0 0 0 
0.00585938 0.373047 0.0460819 0.998772 4.60819e-05 999.999 0.998818 1.04485 0.00700695 0.113899 9988.18 0 0 0 
0.00585938 0.376953 0.0372831 0.998786 3.72832e-05 999.999 0.998823 1.03607 0.00651521 0.108802 9988.23 0 0 0 
0.00585938 0.380859 0.0269303 0.998801 2.69303e-05 999.999 0.998828 1.02573 0.00592775 0.104053 9988.28 0 0 0 
0.00585938 0.384766 0.0166443 0.998816 1.66443e-05 999.999 0.998832 1.01546 0.0053217 0.0997159 9988.32 0 0 0 
0.00585938 0.388672 0.00816225 0.998828 8.16226e-06 999.999 0.998836 1.00699 0.00480417 0.0957271 9988.36 0 0 0 
0.00585938 0.392578 0.00266301 0.998837 2.66302e-06 999.999 0.99884 1.0015 0.00448843 0.0920719 9988.4 0 0 0 
0.00585938 0.396484 0.000332299 0.998842 3.32299e-07 999.999 0.998843 0.999175 0.00443955 0.0884748 9988.43 1 0 0 
0.00585938 0.400391 0.00017526 0.998846 1.7526e-07 999.999 0.998847 0.999022 0.00462692 0.0848028 9988.47 0 0 0 
0.00585938 0.404297 0.0010047 0.998848 1.0047e-06 999.999 0.998849 0.999853 0.00494582 0.0810346 9988.49 0 0 0 
0.00585938 0.408203 0.00197758 0.99885 1.97758e-06 999.999 0.998852 1.00083 0.00524975 0.0770276 9988.52 0 0 0 
0.00585938 0.412109 0.00261112 0.998851 2.61112e-06 999.999 0.998854 1.00146 0.00541644 0.0728983 9988.54 0 0 0 
0.00585938 0.416016 0.00273691 0.998853 2.73691e-06 999.999 0.998856 1.00159 0.00539127 0.068715 9988.56 0 0 0 
0.00585938 0.419922 0.00241327 0.998855 2.41327e-06 999.999 0.998858 1.00127 0.00519949 0.0646165 9988.58 0 0 0 
0.00585938 0.423828 0.00182488 0.998858 1.82488e-06 999.999 0.998859 1.00068 0.00491406 0.0606723 9988.59 0 0 0 
0.00585938 0.427734 0.00119051 0.998859 1.19051e-06 999.999 0.998861 1.00005 0.0046111 0.0569242 9988.61 0 0 0 
0.00585938 0.431641 0.000691662 0.998861 6.91663e-07 999.999 0.998862 0.999553 0.00434533 0.0533606 9988.62 0 0 0 
0.00585938 0.435547 0.000429594 0.998862 4.29595e-07 999.999 0.998863 0.999292 0.00414227 0.0499511 9988.63 0 0 0 
0.00585938 0.439453 0.000414184 0.998863 4.14185e-07 999.999 0.998863 0.999277 0.00400255 0.0466528 9988.63 0 0 0 
0.00585938 0.443359 0.000581488 0.998863 5.81489e-07 999.999 0.998864 0.999445 0.00391217 0.0434294 9988.64 0 0 0 
0.00585938 0.447266 0.000829924 0.998863 8.29925e-07 999.999 0.998864 0.999693 0.00385251 0.0402546 9988.64 0 0 0 
0.00585938 0.451172 0.00106044 0.998863 1.06044e-06 999.999 0.998864 0.999923 0.00380656 0.0371137 9988.64 0 0 0 
0.00585938 0.455078 0.00120676 0.998862 1.20677e-06 999.999 0.998864 1.00007 0.003762 0.0340021 9988.64 0 0 0 
0.00585938 0.458984 0.00124762 0.998862 1.24762e-06 999.999 0.998863 1.00011 0.00371234 0.0309203 9988.63 0 0 0 
0.00585938 0.462891 0.00120099 0.998862 1.201e-06 999.999 0.998863 1.00006 0.003657 0.0278728 9988.63 0 0 0 
0.00585938 0.466797 0.0011071 0.998861 1.1071e-06 999.999 0.998862 0.999968 0.00359989 0.0248599 9988.62 0 0 0 
0.00585938 0.470703 0.00100901 0.99886 1.00902e-06 999.999 0.998861 0.999869 0.0035471 0.0218843 9988.61 0 0 0 
0.00585938 0.474609 0.000938356 0.998859 9.38357e-07 999.999 0.99886 0.999797 0.00350435 0.0189349 9988.6 0 0 0 
0.00585938 0.478516 0.000908945 0.998858 9.08946e-07 999.999 0.998859 0.999767 0.00347517 0.0160144 9988.59 0 0 0 
0.00585938 0.482422 0.000917902 0.998856 9.17903e-07 999.999 0.998857 0.999774 0.00346014 0.013095 9988.57 0 0 0 
0.00585938 0.486328 0.000951274 0.998854 9.51275e-07 999.999 0.998855 0.999806 0.00345697 0.0101984 9988.55 0 0 0 
0.00585938 0.490234 0.000991166 0.998852 9.91168e-07 999.999 0.998853 0.999843 0.00346115 0.00725998 9988.53 0 0 0 
0.00585938 0.494141 0.00102224 0.998851 1.02224e-06 999.999 0.998852 0.999873 0.00346726 0.00436455 9988.52 0 0 0 
0.00585938 0.498047 0.00103653 0.998848 1.03653e-06 999.999 0.998849 0.999884 0.0034709 0.00130473 9988.49 0 0 0 
0.00976562 0.00195312 1000.17 6.46913e-07 0.999999 1000.17 1.16921 1000.17 -0.00320918 0.000491626 11692.1 0 0 0 
0.00976562 0.00585938 1000.17 6.79369e-07 0.999999 1000.17 1.16625 1000.17 -0.0032001 0.00196838 11662.5 0 0 0 
0.00976562 0.00976562 1000.16 7.46015e-07 0.999999 1000.16 1.16429 1000.16 -0.00317976 0.00324563 11642.9 0 0 0 
0.00976562 0.0136719 1000.16 8.41576e-07 0.999999 1000.16 1.16154 1000.16 -0.00315058 0.00458307 11615.4 0 0 0 
0.00976562 0.0175781 1000.16 9.58145e-07 0.999999 1000.16 1.15919 1000.16 -0.00311755 0.00585739 11591.9 0 0 0 
0.00976562 0.0214844 1000.16 1.08686e-06 0.999999 1000.16 1.15657 1000.16 -0.00308653 0.00714447 11565.7 0 0 0 
0.00976562 0.0253906 1000.15 1.21608e-06 0.999999 1000.15 1.15408 1000.15 -0.00306335 0.00840535 11540.8 0 0 0 
0.00976562 0.0292969 1000.15 1.33005e-06 0.999999 1000.15 1.15149 1000.15 -0.00305301 0.00966876 11514.9 0 0 0 
0.00976562 0.0332031 1000.15 1.40869e-06 0.999999 1000.15 1.14893 1000.15 -0.00305892 0.0109262 11489.3 0 0 0 
0.00976562 0.0371094 1000.15 1.42991e-06 0.999999 1000.15 1.14632 1000.15 -0.00308197 0.0121922 11463.2 0 0 0 
0.00976562 0.0410156 1000.14 1.37412e-06 0.999999 1000.14 1.14372 1000.14 -0.00311975 0.0134678 11437.2 0 0 0 
0.00976562 0.0449219 1000.14 1.23076e-06 0.999999 1000.14 1.1411 1000.14 -0.00316625 0.0147601 11411 0 0 0 
0.00976562 0.0488281 1000.14 1.00507e-06 0.999999 1000.14 1.13846 1000.14 -0.00321228 0.0160686 11384.6 0 0 0 
0.00976562 0.0527344 1000.14 7.2331e-07 0.999999 1000.14 1.1358 1000.14 -0.00324706 0.0173919 11358 0 0 0 
0.00976562 0.0566406 1000.13 4.34236e-07 1 1000.13 1.13313 1000.13 -0.00326072 0.0187229 11331.3 0 0 0 
0.00976562 0.0605469 1000.13 2.04907e-07 1 1000.13 1.13045 1000.13 -0.00324762 0.0200529 11304.5 0 0 0 