TITLE=FvSolution
VARIABLES=X Y RHO1Z1 RHO2Z2 Z1 RHO1 RHO2 RHO U V PRE theta lambdaX lambdaY 
ZONE T=TA, I=128, J=128, DATAPACKING = POINT
0.00195312 0.00195312 1000.07 9.37141e-07 0.999999 1000.07 1.07095 1000.07 0.000546635 -0.000680848 10709.5 0 0 0 
0.00195312 0.00585938 1000.07 9.4852e-07 0.999999 1000.07 1.06792 1000.07 0.000546646 -0.00156441 10679.2 0 0 0 
0.00195312 0.00976562 1000.07 9.85373e-07 0.999999 1000.07 1.06623 1000.07 0.000546787 -0.0026177 10662.3 0 0 0 
0.00195312 0.0136719 1000.06 1.02472e-06 0.999999 1000.06 1.06371 1000.06 0.000547203 -0.00360705 10637.1 0 0 0 
0.00195312 0.0175781 1000.06 1.03936e-06 0.999999 1000.06 1.06162 1000.06 0.00054803 -0.00465228 10616.2 0 0 0 
0.00195312 0.0214844 1000.06 1.03393e-06 0.999999 1000.06 1.0593 1000.06 0.000549369 -0.00567678 10593 0 0 0 
0.00195312 0.0253906 1000.06 1.02548e-06 0.999999 1000.06 1.05716 1000.06 0.000551275 -0.00672086 10571.6 0 0 0 
0.00195312 0.0292969 1000.05 1.01718e-06 0.999999 1000.05 1.05498 1000.05 0.000553747 -0.00776126 10549.8 0 0 0 
0.00195312 0.0332031 1000.05 1.00976e-06 0.999999 1000.05 1.05289 1000.05 0.00055674 -0.00881263 10528.9 0 0 0 
0.00195312 0.0371094 1000.05 1.00378e-06 0.999999 1000.05 1.05082 1000.05 0.000560179 -0.00986786 10508.2 0 0 0 
0.00195312 0.0410156 1000.05 9.99581e-07 0.999999 1000.05 1.0488 1000.05 0.000563983 -0.0109324 10488 0 0 0 
0.00195312 0.0449219 1000.05 9.97207e-07 0.999999 1000.05 1.04681 1000.05 0.000568084 -0.0120043 10468.1 0 0 0 
0.00195312 0.0488281 1000.04 9.96435e-07 0.999999 1000.04 1.04488 1000.04 0.000572444 -0.0130857 10448.8 0 0 0 
0.00195312 0.0527344 1000.04 9.96848e-07 0.999999 1000.04 1.04298 1000.04 0.000577057 -0.0141762 10429.8 0 0 0 
0.00195312 0.0566406 1000.04 9.97956e-07 0.999999 1000.04 1.04112 1000.04 0.000581943 -0.0152768 10411.2 0 0 0 
0.00195312 0.0605469 1000.04 9.99304e-07 0.999999 1000.04 1.0393 1000.04 0.00058714 -0.0163878 10393 0 0 0.00207599 
0.00195312 0.0644531 1000.04 1.00054e-06 0.999999 1000.04 1.03753 1000.04 0.00059269 -0.0175102 10375.3 0 0 0.00207599 
0.00195312 0.0683594 1000.03 1.00143e-06 0.999999 1000.04 1.03579 1000.03 0.000598624 -0.0186446 10357.9 0 0 0 
0.00195312 0.0722656 1000.03 1.00189e-06 0.999999 1000.03 1.03409 1000.03 0.00060496 -0.0197918 10340.9 0 0 0 
0.00195312 0.0761719 1000.03 1.00195e-06 0.999999 1000.03 1.03243 1000.03 0.000611698 -0.0209526 10324.3 0 0 0 
0.00195312 0.0800781 1000.03 1.00174e-06 0.999999 1000.03 1.03081 1000.03 0.000618824 -0.0221279 10308.1 0 0 0 
0.00195312 0.0839844 1000.03 1.00142e-06 0.999999 1000.03 1.02923 1000.03 0.000626323 -0.0233184 10292.3 0 0 0 
0.00195312 0.0878906 1000.03 1.00119e-06 0.999999 1000.03 1.02769 1000.03 0.000634182 -0.0245249 10276.9 0 0 0 
0.00195312 0.0917969 1000.03 1.00115e-06 0.999999 1000.03 1.02618 1000.03 0.000642407 -0.0257481 10261.8 0 0 0 
0.00195312 0.0957031 1000.02 1.00135e-06 0.999999 1000.02 1.02471 1000.02 0.000651021 -0.0269888 10247.1 0 0 0 
0.00195312 0.0996094 1000.02 1.0017e-06 0.999999 1000.02 1.02328 1000.02 0.000660064 -0.0282478 10232.8 0 0 0 
0.00195312 0.103516 1000.02 1.00206e-06 0.999999 1000.02 1.02188 1000.02 0.000669584 -0.029526 10218.8 0 0 0 
0.00195312 0.107422 1000.02 1.00228e-06 0.999999 1000.02 1.02051 1000.02 0.000679627 -0.0308244 10205.1 0 0 0.00387858 
0.00195312 0.111328 1000.02 1.00236e-06 0.999999 1000.02 1.01919 1000.02 0.000690217 -0.0321442 10191.9 0 0 0.00387858 
0.00195312 0.115234 1000.02 1.0024e-06 0.999999 1000.02 1.01789 1000.02 0.000701351 -0.0334864 10178.9 0 0 0 
0.00195312 0.119141 1000.02 1.00267e-06 0.999999 1000.02 1.01663 1000.02 0.000712991 -0.0348521 10166.3 0 0 0 
0.00195312 0.123047 1000.01 1.0054e-06 0.999999 1000.02 1.0154 1000.01 0.000725073 -0.0362423 10154 0 0 0 
0.00195312 0.126953 1000.01 1.01697e-06 0.999999 1000.01 1.0142 1000.01 0.000737521 -0.0376578 10142 0 0 0 
0.00195312 0.130859 1000.01 1.04101e-06 0.999999 1000.01 1.01304 1000.01 0.000750277 -0.0390992 10130.4 0 0 0 
0.00195312 0.134766 1000.01 1.07811e-06 0.999999 1000.01 1.01191 1000.01 0.000763338 -0.0405674 10119.1 0 0 0 
0.00195312 0.138672 1000.01 1.12872e-06 0.999999 1000.01 1.0108 1000.01 0.000776793 -0.0420628 10108 0 0 0 
0.00195312 0.142578 1000.01 1.19705e-06 0.999999 1000.01 1.00973 1000.01 0.000790864 -0.0435866 10097.3 0 0 0 
0.00195312 0.146484 1000.01 1.29612e-06 0.999999 1000.01 1.00868 1000.01 0.000805925 -0.0451403 10086.8 0 0 0 
0.00195312 0.150391 1000.01 1.45523e-06 0.999999 1000.01 1.00767 1000.01 0.000822507 -0.0467264 10076.7 0 0 0 
0.00195312 0.154297 1000 2.18639e-06 0.999998 1000.01 1.00668 1000 0.000841257 -0.0483487 10066.8 0 0.00125698 0 
0.00195312 0.158203 1000 5.16618e-06 0.999995 1000.01 1.00571 1000 0.000862868 -0.0500119 10057.1 0 0 0 
0.00195312 0.162109 999.993 1.16603e-05 0.999988 1000 1.00477 999.993 0.000887971 -0.0517225 10047.7 0 0 0 
0.00195312 0.166016 999.982 2.23082e-05 0.999978 1000 1.00385 999.982 0.000916956 -0.0534877 10038.5 0 0 0 
0.00195312 0.169922 999.966 3.72474e-05 0.999963 1000 1.00295 999.966 0.000949761 -0.0553151 10029.5 0 0 0 
0.00195312 0.173828 999.946 5.65299e-05 0.999944 1000 1.00208 999.946 0.000985625 -0.0572115 10020.8 0 0 0 
0.00195312 0.177734 999.92 8.12781e-05 0.999919 1000 1.00122 999.92 0.00102289 -0.0591815 10012.2 0 0 0 
0.00195312 0.181641 999.884 0.000116633 0.999883 1000 1.00039 999.884 0.0010589 -0.0612252 10003.9 0 0 0 
0.00195312 0.185547 999.819 0.00018066 0.999819 1000 0.999579 999.819 0.00109012 -0.0633363 9995.79 0 0 0 
0.00195312 0.189453 999.589 0.000409245 0.99959 999.999 0.99879 999.589 0.00111288 -0.0655002 9987.9 0 0.00196796 0 
0.00195312 0.193359 998.889 0.00110728 0.998891 999.998 0.998029 998.89 0.00112538 -0.0676924 9980.29 0 0.00265115 0 
0.00195312 0.197266 997.571 0.00241975 0.997574 999.997 0.997302 997.573 0.00112954 -0.0698843 9973.02 0 0.000629036 0 
0.00195312 0.201172 995.689 0.00429355 0.995692 999.997 0.996625 995.693 0.0011296 -0.0720567 9966.25 0 -0.00168738 0 
0.00195312 0.205078 993.402 0.00656739 0.993406 999.996 0.996026 993.409 0.00112943 -0.0742027 9960.26 0 0 0 
0.00195312 0.208984 990.819 0.00913536 0.990824 999.996 0.995528 990.828 0.00113127 -0.0763268 9955.28 0 0 0 
0.00195312 0.212891 987.731 0.0122052 0.987735 999.995 0.995155 987.743 0.00113579 -0.0784363 9951.55 0 0 0 
0.00195312 0.216797 982.843 0.0170652 0.982848 999.995 0.994918 982.86 0.00114311 -0.0805327 9949.18 0 0 0 
0.00195312 0.220703 970.992 0.0288538 0.970997 999.995 0.99484 971.02 0.00115406 -0.0825938 9948.4 0 0 0.35 
0.00195312 0.224609 942.243 0.0574629 0.942248 999.995 0.994989 942.3 0.00117044 -0.084558 9949.89 0 0 0.35 
0.00195312 0.228516 871.449 0.12796 0.871453 999.995 0.995438 871.577 0.00119247 -0.0863531 9954.38 0 0 0.35 
0.00195312 0.232422 674.629 0.324179 0.674632 999.996 0.996343 674.953 0.00121176 -0.0878544 9963.43 0 0 0.35 
0.00195312 0.236328 349.06 0.649294 0.34906 999.997 0.997473 349.709 0.00121083 -0.0892144 9974.73 0 0 0.35 
0.00195312 0.240234 138.146 0.860375 0.138146 999.998 0.998284 139.006 0.0011772 -0.0912216 9982.84 0 0 0.35 
0.00195312 0.244141 61.6628 0.937127 0.0616629 999.999 0.99871 62.5999 0.00111685 -0.0934361 9987.1 0 0 0.35 
0.00195312 0.248047 31.3146 0.967661 0.0313146 999.999 0.998942 32.2823 0.00103254 -0.0958132 9989.42 0 0 0.35 
0.00195312 0.251953 18.5108 0.980582 0.0185108 999.999 0.999076 19.4914 0.00092161 -0.0981191 9990.76 0 0 0 
0.00195312 0.255859 13.0098 0.986167 0.0130098 999.999 0.999166 13.996 0.000782061 -0.100189 9991.66 0 0 0 
0.00195312 0.259766 9.5393 0.989702 0.00953931 999.999 0.999234 10.529 0.000613783 -0.101988 9992.34 0 0 0 
0.00195312 0.263672 6.79828 0.992492 0.00679828 999.999 0.999285 7.79077 0.000425997 -0.103417 9992.85 0 0 0 
0.00195312 0.267578 4.53318 0.994792 0.00453318 999.999 0.999322 5.52797 0.000221422 -0.104459 9993.22 0 0 0 
0.00195312 0.271484 2.73513 0.996615 0.00273513 999.999 0.999348 3.73174 -1.77282e-05 -0.105056 9993.48 0 0 0 
0.00195312 0.275391 1.42421 0.997943 0.00142421 999.999 0.999366 2.42215 -0.000290061 -0.105146 9993.66 0 0 0 
0.00195312 0.279297 0.596663 0.998781 0.000596663 999.999 0.999377 1.59544 -0.00056699 -0.104681 9993.77 0 0 0 
0.00195312 0.283203 0.196089 0.999189 0.000196089 999.999 0.999385 1.19528 -0.000816515 -0.103685 9993.85 0 0 0 
0.00195312 0.287109 0.0838444 0.999307 8.38444e-05 999.999 0.999391 1.08315 -0.00101331 -0.102234 9993.91 0 0.000784594 0 
0.00195312 0.291016 0.0561449 0.999341 5.61449e-05 999.999 0.999397 1.05549 -0.00116415 -0.100446 9993.97 0 0 0 
0.00195312 0.294922 0.0408173 0.999362 4.08174e-05 999.999 0.999403 1.04018 -0.00129842 -0.0983802 9994.03 0 0 0 
0.00195312 0.298828 0.031089 0.999378 3.1089e-05 999.999 0.999409 1.03047 -0.00143352 -0.0960502 9994.09 0 0 0 
0.00195312 0.302734 0.0240743 0.999391 2.40743e-05 999.999 0.999415 1.02347 -0.00156113 -0.0934589 9994.15 0 0 0 
0.00195312 0.306641 0.0184372 0.999402 1.84372e-05 999.999 0.999421 1.01784 -0.00166009 -0.0906433 9994.21 0 0 0 
0.00195312 0.310547 0.0135654 0.999413 1.35654e-05 999.999 0.999426 1.01298 -0.0017157 -0.0876771 9994.26 0 0 0 
0.00195312 0.314453 0.00931093 0.999423 9.31093e-06 999.999 0.999432 1.00873 -0.00172813 -0.084649 9994.32 0 0 0 
0.00195312 0.318359 0.00583324 0.999432 5.83324e-06 999.999 0.999437 1.00526 -0.00170811 -0.081635 9994.37 0 0 0 
0.00195312 0.322266 0.00338362 0.99944 3.38362e-06 999.999 0.999443 1.00282 -0.00166862 -0.078687 9994.43 0 0 0 
0.00195312 0.326172 0.00205323 0.999446 2.05323e-06 999.999 0.999448 1.0015 -0.00162034 -0.0758333 9994.48 0 0 0 
0.00195312 0.330078 0.00158491 0.999452 1.58491e-06 999.999 0.999454 1.00104 -0.00157118 -0.0730842 9994.54 0 -0.000468947 0 
0.00195312 0.333984 0.00142731 0.999458 1.42732e-06 999.999 0.999459 1.00088 -0.00152673 -0.0704366 9994.59 0 0 0 
0.00195312 0.337891 0.00132089 0.999463 1.32089e-06 999.999 0.999464 1.00078 -0.00148999 -0.0678786 9994.64 0 0 0 
0.00195312 0.341797 0.0012304 0.999468 1.2304e-06 999.999 0.99947 1.0007 -0.00146119 -0.0653945 9994.7 0 -0.000395287 0 
0.00195312 0.345703 0.00115038 0.999474 1.15038e-06 999.999 0.999475 1.00062 -0.00143844 -0.0629706 9994.75 0 5.7263e-05 0 
0.00195312 0.349609 0.00108529 0.999479 1.08529e-06 999.999 0.99948 1.00056 -0.00141922 -0.0605975 9994.8 0 0 0 
0.00195312 0.353516 0.00104058 0.999484 1.04058e-06 999.999 0.999485 1.00052 -0.00140158 -0.0582705 9994.85 0 0 0 
0.00195312 0.357422 0.0010173 0.999489 1.0173e-06 999.999 0.99949 1.00051 -0.00138459 -0.0559876 9994.9 0 0 0 
0.00195312 0.361328 0.00100967 0.999494 1.00967e-06 1000 0.999495 1.0005 -0.001368 -0.0537484 9994.95 0 0 0 
0.00195312 0.365234 0.00100705 0.999499 1.00705e-06 999.999 0.9995 1.00051 -0.0013517 -0.0515526 9995 0 0 0 
0.00195312 0.369141 0.00100518 0.999504 1.00518e-06 1000 0.999505 1.00051 -0.00133554 -0.0494002 9995.05 0 0.00110209 0 
0.00195312 0.373047 0.00100359 0.999509 1.00359e-06 1000 0.99951 1.00051 -0.00131928 -0.0472918 9995.1 0 0.0001519 0 
0.00195312 0.376953 0.00100219 0.999514 1.00219e-06 1000 0.999515 1.00052 -0.00130277 -0.0452285 9995.15 0 0 0 
0.00195312 0.380859 0.00100105 0.999518 1.00105e-06 1000 0.999519 1.00052 -0.00128599 -0.0432113 9995.19 0 0 3.60158e-06 
0.00195312 0.384766 0.00100023 0.999523 1.00023e-06 999.999 0.999524 1.00052 -0.00126904 -0.0412415 9995.24 0 0 3.60158e-06 
0.00195312 0.388672 0.000999724 0.999527 9.99724e-07 1000 0.999528 1.00053 -0.00125212 -0.0393197 9995.28 0 0 0 
0.00195312 0.392578 0.000999482 0.999531 9.99483e-07 1000 0.999532 1.00053 -0.0012354 -0.0374462 9995.32 0 0 0 
0.00195312 0.396484 0.00099941 0.999535 9.99411e-07 999.999 0.999536 1.00053 -0.0012191 -0.0356208 9995.36 0 0.000435213 -0.000730827 
0.00195312 0.400391 0.000999422 0.999539 9.99422e-07 999.999 0.99954 1.00054 -0.0012034 -0.033843 9995.4 0 0 -0.000730827 
0.00195312 0.404297 0.000999461 0.999543 9.99461e-07 1000 0.999544 1.00054 -0.00118847 -0.0321117 9995.44 0 -0.000478776 0 
0.00195312 0.408203 0.000999503 0.999547 9.99503e-07 1000 0.999548 1.00055 -0.00117441 -0.0304255 9995.48 0 0 0 
0.00195312 0.412109 0.000999539 0.999551 9.99539e-07 1000 0.999552 1.00055 -0.00116127 -0.0287825 9995.52 0 0 0 
0.00195312 0.416016 0.000999567 0.999554 9.99568e-07 1000 0.999555 1.00055 -0.00114899 -0.0271809 9995.55 0 -0.00067034 0 
0.00195312 0.419922 0.000999585 0.999557 9.99586e-07 1000 0.999558 1.00056 -0.0011375 -0.0256191 9995.58 0 -0.000351973 0 
0.00195312 0.423828 0.000999591 0.99956 9.99591e-07 1000 0.999561 1.00056 -0.00112665 -0.0240955 9995.61 0 4.56054e-05 0 
0.00195312 0.427734 0.000999583 0.999563 9.99584e-07 1000 0.999564 1.00056 -0.00111632 -0.0226088 9995.64 0 -0.00055766 0 
0.00195312 0.431641 0.000999568 0.999566 9.99569e-07 1000 0.999567 1.00057 -0.0011064 -0.0211578 9995.67 0 0 0 
0.00195312 0.435547 0.000999554 0.999568 9.99555e-07 1000 0.999569 1.00057 -0.0010968 -0.0197414 9995.69 0 0 0.00153078 
0.00195312 0.439453 0.000999548 0.99957 9.99548e-07 1000 0.999571 1.00057 -0.00108749 -0.0183589 9995.71 0 0 0.00153078 
0.00195312 0.443359 0.000999555 0.999572 9.99556e-07 1000 0.999573 1.00057 -0.00107845 -0.0170095 9995.73 0 0 0 
0.00195312 0.447266 0.000999576 0.999574 9.99576e-07 1000 0.999575 1.00057 -0.00106973 -0.0156921 9995.75 0 0 0 
0.00195312 0.451172 0.000999606 0.999575 9.99606e-07 1000 0.999576 1.00057 -0.00106141 -0.0144057 9995.76 0 0 0.000303984 
0.00195312 0.455078 0.000999642 0.999576 9.99642e-07 1000 0.999577 1.00058 -0.0010536 -0.0131485 9995.77 0 0 0.000303984 
0.00195312 0.458984 0.000999677 0.999577 9.99678e-07 1000 0.999578 1.00058 -0.00104645 -0.0119191 9995.78 0 0 0.000574615 
0.00195312 0.462891 0.000999708 0.999577 9.99709e-07 1000 0.999578 1.00058 -0.00104008 -0.0107146 9995.78 0 0 0.000943335 
0.00195312 0.466797 0.000999729 0.999578 9.99729e-07 1000 0.999579 1.00058 -0.00103461 -0.0095336 9995.79 0 -0.00127968 0.000368721 
0.00195312 0.470703 0.000999734 0.999578 9.99734e-07 1000 0.999579 1.00058 -0.00103013 -0.00837101 9995.79 0 0 0 
0.00195312 0.474609 0.000999717 0.999577 9.99717e-07 1000 0.999578 1.00058 -0.00102667 -0.00722769 9995.78 0 0 0 
0.00195312 0.478516 0.000999674 0.999577 9.99674e-07 1000 0.999578 1.00058 -0.00102419 -0.0060939 9995.78 0 0 -0.00144309 
0.00195312 0.482422 0.000999605 0.999576 9.99605e-07 1000 0.999577 1.00058 -0.00102255 -0.00497828 9995.77 0 0 -0.00283638 
0.00195312 0.486328 0.000999515 0.999575 9.99515e-07 1000 0.999576 1.00057 -0.00102158 -0.00385958 9995.76 0 0.00074674 -0.00139329 
0.00195312 0.490234 0.000999417 0.999573 9.99418e-07 1000 0.999574 1.00057 -0.00102109 -0.00277451 9995.74 0 0 0 
0.00195312 0.494141 0.000999334 0.999572 9.99334e-07 1000 0.999573 1.00057 -0.00102091 -0.00167787 9995.73 0 0 0 
0.00195312 0.498047 0.000999283 0.999569 9.99284e-07 1000 0.99957 1.00057 -0.00102088 -0.000706572 9995.7 0 0 0 
0.00585938 0.00195312 1000.07 9.36797e-07 0.999999 1000.07 1.07107 1000.07 0.00162795 -0.000680788 10710.7 0 0 0 
0.00585938 0.00585938 1000.07 9.48175e-07 0.999999 1000.07 1.06804 1000.07 0.00162798 -0.00156422 10680.4 0 0 0 
0.00585938 0.00976562 1000.07 9.8502e-07 0.999999 1000.07 1.06636 1000.07 0.00162839 -0.00261737 10663.6 0 0 0 
0.00585938 0.0136719 1000.06 1.02436e-06 0.999999 1000.06 1.06384 1000.06 0.00162963 -0.00360656 10638.4 0 0 0 
0.00585938 0.0175781 1000.06 1.03899e-06 0.999999 1000.06 1.06175 1000.06 0.00163211 -0.00465162 10617.5 0 0 0 
0.00585938 0.0214844 1000.06 1.03357e-06 0.999999 1000.06 1.05943 1000.06 0.00163612 -0.00567594 10594.3 0 0 0 
0.00585938 0.0253906 1000.06 1.02512e-06 0.999999 1000.06 1.05729 1000.06 0.00164183 -0.00671985 10572.9 0 0 0 
0.00585938 0.0292969 1000.05 1.01682e-06 0.999999 1000.06 1.05511 1000.05 0.00164924 -0.00776007 10551.1 0 0 0 
0.00585938 0.0332031 1000.05 1.00941e-06 0.999999 1000.05 1.05302 1000.05 0.00165822 -0.00881127 10530.2 0 0 0 
0.00585938 0.0371094 1000.05 1.00343e-06 0.999999 1000.05 1.05094 1000.05 0.00166853 -0.00986636 10509.4 0 0 0 
0.00585938 0.0410156 1000.05 9.99229e-07 0.999999 1000.05 1.04893 1000.05 0.00167993 -0.0109308 10489.3 0 0 0 
0.00585938 0.0449219 1000.05 9.96856e-07 0.999999 1000.05 1.04694 1000.05 0.00169223 -0.0120026 10469.4 0 0 0 
0.00585938 0.0488281 1000.04 9.96085e-07 0.999999 1000.05 1.045 1000.04 0.0017053 -0.0130838 10450 0 0 0 
0.00585938 0.0527344 1000.04 9.96498e-07 0.999999 1000.04 1.0431 1000.04 0.00171912 -0.0141742 10431 0 0 0 
0.00585938 0.0566406 1000.04 9.97606e-07 0.999999 1000.04 1.04125 1000.04 0.00173377 -0.0152747 10412.5 0 0 0 
0.00585938 0.0605469 1000.04 9.98953e-07 0.999999 1000.04 1.03943 1000.04 0.00174934 -0.0163856 10394.3 0 0 0.00212892 
0.00585938 0.0644531 1000.04 1.00019e-06 0.999999 1000.04 1.03765 1000.04 0.00176597 -0.017508 10376.5 0 0 0.00212892 
0.00585938 0.0683594 1000.03 1.00108e-06 0.999999 1000.04 1.03592 1000.03 0.00178376 -0.0186422 10359.2 0 0 0 
0.00585938 0.0722656 1000.03 1.00154e-06 0.999999 1000.03 1.03422 1000.03 0.00180275 -0.0197894 10342.2 0 0 0 
0.00585938 0.0761719 1000.03 1.0016e-06 0.999999 1000.03 1.03256 1000.03 0.00182294 -0.0209502 10325.6 0 0 0 
0.00585938 0.0800781 1000.03 1.00139e-06 0.999999 1000.03 1.03094 1000.03 0.00184429 -0.0221254 10309.4 0 0 0 
0.00585938 0.0839844 1000.03 1.00107e-06 0.999999 1000.03 1.02936 1000.03 0.00186676 -0.0233159 10293.6 0 0 0 
0.00585938 0.0878906 1000.03 1.00084e-06 0.999999 1000.03 1.02782 1000.03 0.00189031 -0.0245224 10278.2 0 0 0 
0.00585938 0.0917969 1000.03 1.00081e-06 0.999999 1000.03 1.02631 1000.03 0.00191496 -0.0257456 10263.1 0 0 0 
0.00585938 0.0957031 1000.02 1.001e-06 0.999999 1000.02 1.02484 1000.02 0.00194076 -0.0269862 10248.4 0 0 0 
0.00585938 0.0996094 1000.02 1.00135e-06 0.999999 1000.02 1.02341 1000.02 0.00196786 -0.0282452 10234.1 0 0 0 
0.00585938 0.103516 1000.02 1.00171e-06 0.999999 1000.02 1.02201 1000.02 0.00199637 -0.0295235 10220.1 0 0 0 
0.00585938 0.107422 1000.02 1.00194e-06 0.999999 1000.02 1.02064 1000.02 0.00202645 -0.0308219 10206.4 0 0 0.00367553 
0.00585938 0.111328 1000.02 1.00201e-06 0.999999 1000.02 1.01932 1000.02 0.00205815 -0.0321417 10193.2 0 0 0.00367553 
0.00585938 0.115234 1000.02 1.00206e-06 0.999999 1000.02 1.01802 1000.02 0.00209148 -0.0334839 10180.2 0 0 0 
0.00585938 0.119141 1000.02 1.00232e-06 0.999999 1000.02 1.01676 1000.02 0.00212631 -0.0348496 10167.6 0 0 0 
0.00585938 0.123047 1000.01 1.00505e-06 0.999999 1000.02 1.01553 1000.01 0.00216246 -0.0362396 10155.3 0 0 0 
0.00585938 0.126953 1000.01 1.01662e-06 0.999999 1000.01 1.01434 1000.01 0.00219971 -0.037655 10143.4 0 0 0 
0.00585938 0.130859 1000.01 1.04065e-06 0.999999 1000.01 1.01317 1000.01 0.00223789 -0.0390962 10131.7 0 0 0 
0.00585938 0.134766 1000.01 1.0777e-06 0.999999 1000.01 1.01204 1000.01 0.00227701 -0.0405641 10120.4 0 0 0 
0.00585938 0.138672 1000.01 1.12827e-06 0.999999 1000.01 1.01094 1000.01 0.00231732 -0.0420594 10109.4 0 0 0 
0.00585938 0.142578 1000.01 1.19659e-06 0.999999 1000.01 1.00987 1000.01 0.00235947 -0.0435831 10098.7 0 0 0 
0.00585938 0.146484 1000.01 1.29562e-06 0.999999 1000.01 1.00882 1000.01 0.00240458 -0.0451367 10088.2 0 0 0 
0.00585938 0.150391 1000.01 1.45464e-06 0.999999 1000.01 1.0078 1000.01 0.00245417 -0.0467228 10078 0 0 0 
0.00585938 0.154297 1000 2.18524e-06 0.999998 1000.01 1.00681 1000 0.00251012 -0.0483447 10068.1 0 0.00125698 0 
0.00585938 0.158203 1000 5.16272e-06 0.999995 1000.01 1.00585 1000 0.00257445 -0.0500071 10058.5 0 0 0 
0.00585938 0.162109 999.993 1.16521e-05 0.999988 1000 1.00491 999.993 0.00264895 -0.0517157 10049.1 0 0 0 
0.00585938 0.166016 999.982 2.22915e-05 0.999978 1000 1.00399 999.982 0.00273467 -0.0534772 10039.9 0 0 0 
0.00585938 0.169922 999.966 3.72185e-05 0.999963 1000 1.0031 999.966 0.0028313 -0.0552981 10031 0 0 0 
0.00585938 0.173828 999.946 5.64858e-05 0.999944 1000 1.00222 999.946 0.00293645 -0.0571842 10022.2 0 0 0 
0.00585938 0.177734 999.92 8.12158e-05 0.999919 1000 1.00137 999.92 0.00304513 -0.0591385 10013.7 0 0 0 
0.00585938 0.181641 999.884 0.000116546 0.999884 1000 1.00053 999.884 0.00314956 -0.06116 10005.3 0 0 0 
0.00585938 0.185547 999.819 0.000180519 0.999819 1000 0.999717 999.819 0.00323996 -0.0632424 9997.17 0 0 0 
0.00585938 0.189453 999.59 0.000408913 0.999591 999.999 0.998916 999.59 0.00330702 -0.0653735 9989.16 0 0 0 
0.00585938 0.193359 998.89 0.00110653 0.998891 999.998 0.998138 998.891 0.00334657 -0.067534 9981.38 0 0 0 
0.00585938 0.197266 997.573 0.00241836 0.997575 999.997 0.997392 997.575 0.0033629 -0.0697011 9973.92 0 0 0 
0.00585938 0.201172 995.691 0.00429141 0.995694 999.997 0.996701 995.695 0.00336619 -0.0718565 9967.01 0 0 0 
0.00585938 0.205078 993.406 0.00656448 0.99341 999.996 0.996091 993.412 0.00336677 -0.073991 9960.91 0 0 0 
0.00585938 0.208984 990.823 0.00913168 0.990828 999.996 0.995586 990.833 0.00337151 -0.0761052 9955.86 0 0 0 
0.00585938 0.212891 987.736 0.0122007 0.987741 999.995 0.995206 987.748 0.00338361 -0.0782042 9952.06 0 0 0 
0.00585938 0.216797 982.849 0.0170592 0.982854 999.995 0.994962 982.867 0.00340429 -0.0802908 9949.62 0 0 0 
0.00585938 0.220703 971.003 0.0288433 0.971008 999.995 0.994876 971.032 0.00343539 -0.0823464 9948.76 0 0 0.35 
0.00585938 0.224609 942.267 0.057441 0.942271 999.995 0.995017 942.324 0.00348174 -0.0843107 9950.17 0 0 0.35 
0.00585938 0.228516 871.512 0.127901 0.871516 999.995 0.995458 871.64 0.00354157 -0.0861068 9954.58 0 0 0.35 
0.00585938 0.232422 674.787 0.324026 0.674789 999.996 0.996357 675.111 0.00358696 -0.0875987 9963.57 0 -0.000150507 0.35 
0.00585938 0.236328 349.223 0.649137 0.349224 999.997 0.997482 349.872 0.00357026 -0.0889272 9974.82 0 0 0.35 
0.00585938 0.240234 138.204 0.86032 0.138204 999.998 0.998288 139.064 0.0034835 -0.0908992 9982.88 0 0 0.35 
0.00585938 0.244141 61.6814 0.937111 0.0616815 999.999 0.998713 62.6185 0.00331624 -0.0931089 9987.13 0 3.73626e-05 0.35 
0.00585938 0.248047 31.3266 0.96765 0.0313266 999.999 0.998944 32.2942 0.0030732 -0.095494 9989.44 0 0 0.35 
0.00585938 0.251953 18.5193 0.980575 0.0185193 999.999 0.999077 19.4999 0.00274117 -0.0978107 9990.77 0 0 0 
0.00585938 0.255859 13.0151 0.986163 0.0130151 999.999 0.999167 14.0013 0.00232136 -0.0998863 9991.67 0 0 0 
0.00585938 0.259766 9.54231 0.9897 0.00954231 999.999 0.999235 10.532 0.00181675 -0.101686 9992.35 0 0 0 
0.00585938 0.263672 6.8002 0.99249 0.00680021 999.999 0.999285 7.79269 0.0012535 -0.103113 9992.85 0 0 0 
0.00585938 0.267578 4.53476 0.994791 0.00453476 999.999 0.999323 5.52955 0.000645628 -0.104153 9993.23 0 0 0 
0.00585938 0.271484 2.73648 0.996614 0.00273648 999.999 0.999349 3.73309 -4.32502e-05 -0.104762 9993.49 0 0 0 
0.00585938 0.275391 1.42515 0.997942 0.00142515 999.999 0.999366 2.4231 -0.000832866 -0.104892 9993.66 0 0 0 
0.00585938 0.279297 0.597149 0.99878 0.000597149 999.999 0.999377 1.59593 -0.00166386 -0.104474 9993.77 0 0 0 
0.00585938 0.283203 0.196255 0.999189 0.000196255 999.999 0.999385 1.19544 -0.00241965 -0.103512 9993.85 0 0 0 
0.00585938 0.287109 0.0838856 0.999307 8.38857e-05 999.999 0.999391 1.08319 -0.00301318 -0.102082 9993.91 0 0.000784594 0 
0.00585938 0.291016 0.0561587 0.999341 5.61588e-05 999.999 0.999397 1.0555 -0.00346522 -0.100309 9993.97 0 0 0 
0.00585938 0.294922 0.0408237 0.999362 4.08237e-05 999.999 0.999403 1.04019 -0.00386573 -0.0982577 9994.03 0 0 0 
0.00585938 0.298828 0.0310928 0.999378 3.10928e-05 999.999 0.999409 1.03047 -0.00426761 -0.0959449 9994.09 0 0 0 
0.00585938 0.302734 0.0240766 0.999391 2.40766e-05 999.999 0.999415 1.02347 -0.00464707 -0.0933748 9994.15 0 0 0 
0.00585938 0.306641 0.0184384 0.999402 1.84384e-05 999.999 0.999421 1.01784 -0.00494215 -0.0905827 9994.21 0 0 0 
0.00585938 0.310547 0.0135659 0.999413 1.35659e-05 999.999 0.999426 1.01298 -0.00510924 -0.0876392 9994.26 0 0 0 
0.00585938 0.314453 0.00931099 0.999423 9.31099e-06 999.999 0.999432 1.00873 -0.00514843 -0.0846302 9994.32 0 0 0 
0.00585938 0.318359 0.00583305 0.999432 5.83305e-06 999.999 0.999437 1.00526 -0.00509138 -0.0816301 9994.37 0 0 0 
0.00585938 0.322266 0.00338338 0.999439 3.38339e-06 999.999 0.999443 1.00282 -0.00497623 -0.0786899 9994.43 0 0 0 
0.00585938 0.326172 0.00205306 0.999446 2.05306e-06 999.999 0.999448 1.0015 -0.00483433 -0.0758384 9994.48 0 0 0 
0.00585938 0.330078 0.00158475 0.999452 1.58475e-06 999.999 0.999454 1.00104 -0.00468899 -0.0730877 9994.54 0 -0.000468947 0 
0.00585938 0.333984 0.00142709 0.999458 1.42709e-06 999.999 0.999459 1.00088 -0.00455683 -0.0704365 9994.59 0 0 0 
0.00585938 0.337891 0.0013206 0.999463 1.3206e-06 999.999 0.999464 1.00078 -0.00444706 -0.0678746 9994.64 0 0 0 
0.00585938 0.341797 0.00123007 0.999468 1.23007e-06 1000 0.99947 1.0007 -0.00436068 -0.0653877 9994.7 0 0 0 
0.00585938 0.345703 0.00115001 0.999474 1.15001e-06 999.999 0.999475 1.00062 -0.00429242 -0.0629623 9994.75 0 0 0 
0.00585938 0.349609 0.00108492 0.999479 1.08492e-06 999.999 0.99948 1.00056 -0.00423489 -0.0605888 9994.8 0 0 0 
0.00585938 0.353516 0.00104031 0.999484 1.04031e-06 1000 0.999485 1.00052 -0.00418236 -0.058262 9994.85 0 0 0 
0.00585938 0.357422 0.00101716 0.999489 1.01716e-06 1000 0.99949 1.00051 -0.00413196 -0.0559797 9994.9 0 0 0 
0.00585938 0.361328 0.00100961 0.999494 1.00961e-06 1000 0.999495 1.0005 -0.00408281 -0.053741 9994.95 0 0 0 
0.00585938 0.365234 0.00100702 0.999499 1.00702e-06 999.999 0.9995 1.00051 -0.00403462 -0.0515456 9995 0 0 0 
0.00585938 0.369141 0.00100516 0.999504 1.00516e-06 999.999 0.999505 1.00051 -0.00398685 -0.0493936 9995.05 0 0.00110209 0 
0.00585938 0.373047 0.00100357 0.999509 1.00357e-06 1000 0.99951 1.00051 -0.00393883 -0.0472857 9995.1 0 0.0001519 0 
0.00585938 0.376953 0.00100218 0.999514 1.00218e-06 999.999 0.999515 1.00052 -0.00389008 -0.0452227 9995.15 0 0 0 
0.00585938 0.380859 0.00100104 0.999518 1.00104e-06 1000 0.999519 1.00052 -0.00384056 -0.0432059 9995.19 0 0 3.60158e-06 
0.00585938 0.384766 0.00100022 0.999523 1.00022e-06 999.999 0.999524 1.00052 -0.00379057 -0.0412363 9995.24 0 0 3.60158e-06 
0.00585938 0.388672 0.00099972 0.999527 9.9972e-07 1000 0.999528 1.00053 -0.00374063 -0.0393147 9995.28 0 0 0 
0.00585938 0.392578 0.000999482 0.999531 9.99483e-07 1000 0.999532 1.00053 -0.00369132 -0.0374415 9995.32 0 0.00102458 0 
0.00585938 0.396484 0.000999412 0.999536 9.99413e-07 1000 0.999537 1.00053 -0.00364325 -0.0356163 9995.37 0 0.000435213 -0.000730704 
0.00585938 0.400391 0.000999424 0.99954 9.99424e-07 1000 0.999541 1.00054 -0.00359696 -0.0338387 9995.41 0 0 -0.000730704 
0.00585938 0.404297 0.000999463 0.999543 9.99463e-07 1000 0.999544 1.00054 -0.00355291 -0.0321075 9995.44 0 -0.000478776 0 
0.00585938 0.408203 0.000999503 0.999547 9.99504e-07 1000 0.999548 1.00055 -0.0035114 -0.0304212 9995.48 0 0 0 
0.00585938 0.412109 0.000999539 0.999551 9.99539e-07 1000 0.999552 1.00055 -0.00347255 -0.0287782 9995.52 0 0 0 
0.00585938 0.416016 0.000999567 0.999554 9.99567e-07 1000 0.999555 1.00055 -0.00343628 -0.0271767 9995.55 0 0 0 
0.00585938 0.419922 0.000999585 0.999557 9.99585e-07 999.999 0.999558 1.00056 -0.00340236 -0.025615 9995.58 0 -0.000351973 0 
0.00585938 0.423828 0.00099959 0.99956 9.99591e-07 1000 0.999561 1.00056 -0.00337044 -0.0240915 9995.61 0 4.56054e-05 0 
0.00585938 0.427734 0.000999583 0.999563 9.99584e-07 1000 0.999564 1.00056 -0.00334011 -0.0226049 9995.64 0 -0.00055766 0 
0.00585938 0.431641 0.000999568 0.999566 9.99569e-07 1000 0.999567 1.00057 -0.00331099 -0.021154 9995.67 0 0 0 
0.00585938 0.435547 0.000999554 0.999568 9.99554e-07 1000 0.999569 1.00057 -0.00328281 -0.0197379 9995.69 0 0 0.00114808 
0.00585938 0.439453 0.000999548 0.99957 9.99548e-07 1000 0.999571 1.00057 -0.00325538 -0.0183557 9995.71 0 0 0.00114808 
0.00585938 0.443359 0.000999555 0.999572 9.99556e-07 1000 0.999573 1.00057 -0.00322867 -0.0170064 9995.73 0 0 0 
0.00585938 0.447266 0.000999576 0.999574 9.99576e-07 1000 0.999575 1.00057 -0.00320278 -0.0156892 9995.75 0 0 0 
0.00585938 0.451172 0.000999606 0.999575 9.99607e-07 1000 0.999576 1.00057 -0.00317798 -0.014403 9995.76 0 0 0.000303984 
0.00585938 0.455078 0.000999642 0.999576 9.99642e-07 1000 0.999577 1.00058 -0.00315467 -0.013146 9995.77 0 0 0.000303984 
0.00585938 0.458984 0.000999677 0.999577 9.99678e-07 1000 0.999578 1.00058 -0.00313331 -0.0119167 9995.78 0 0 0.000574615 
0.00585938 0.462891 0.000999708 0.999578 9.99709e-07 1000 0.999579 1.00058 -0.00311432 -0.0107123 9995.79 0 0 0.00092736 
0.00585938 0.466797 0.000999729 0.999578 9.99729e-07 1000 0.999579 1.00058 -0.00309805 -0.00953128 9995.79 0 0 0.000352746 
0.00585938 0.470703 0.000999734 0.999578 9.99734e-07 1000 0.999579 1.00058 -0.00308474 -0.00836872 9995.79 0 0 0 
0.00585938 0.474609 0.000999717 0.999578 9.99717e-07 1000 0.999579 1.00058 -0.00307449 -0.00722549 9995.79 0 0 0 
0.00585938 0.478516 0.000999674 0.999577 9.99674e-07 1000 0.999578 1.00058 -0.00306714 -0.00609187 9995.78 0 0 -0.00158127 
0.00585938 0.482422 0.000999605 0.999576 9.99605e-07 1000 0.999577 1.00058 -0.00306231 -0.0049765 9995.77 0 0 -0.00343625 
0.00585938 0.486328 0.000999515 0.999575 9.99515e-07 1000 0.999576 1.00057 -0.00305945 -0.00385815 9995.76 0 0.00074674 -0.00185498 
0.00585938 0.490234 0.000999417 0.999573 9.99418e-07 1000 0.999574 1.00057 -0.00305805 -0.00277346 9995.74 0 0 0 
0.00585938 0.494141 0.000999334 0.999572 9.99334e-07 1000 0.999573 1.00057 -0.00305754 -0.00167725 9995.73 0 0 0 
0.00585938 0.498047 0.000999283 0.999569 9.99284e-07 1000 0.99957 1.00057 -0.00305749 -0.000706359 9995.7 0 0 0 
0.00976562 0.00195312 1000.07 9.36401e-07 0.999999 1000.07 1.07106 1000.07 0.00271191 -0.000680578 10710.6 0 0 0 
0.00976562 0.00585938 1000.07 9.47774e-07 0.999999 1000.07 1.06802 1000.07 0.00271193 -0.00156357 10680.2 0 0 0 
0.00976562 0.00976562 1000.07 9.84607e-07 0.999999 1000.07 1.06634 1000.07 0.0027126 -0.00261625 10663.4 0 0 0 
0.00976562 0.0136719 1000.06 1.02394e-06 0.999999 1000.06 1.06382 1000.06 0.00271464 -0.00360494 10638.2 0 0 0 
0.00976562 0.0175781 1000.06 1.03856e-06 0.999999 1000.06 1.06173 1000.06 0.00271874 -0.00464946 10617.3 0 0 0 
0.00976562 0.0214844 1000.06 1.03314e-06 0.999999 1000.06 1.05941 1000.06 0.00272542 -0.00567323 10594.1 0 0 0 