TITLE=FvSolution
VARIABLES=X Y RHO1Z1 RHO2Z2 Z1 RHO1 RHO2 RHO U V PRE theta lambdaX lambdaY 
ZONE T=TA, I=128, J=128, DATAPACKING = POINT
0.00195312 0.00195312 1000.14 7.71164e-07 0.999999 1000.15 1.14525 1000.14 -0.000648513 0.000509205 11452.5 0 0 0 
0.00195312 0.00585938 1000.14 7.95491e-07 0.999999 1000.14 1.14231 1000.14 -0.000645927 0.00201775 11423.1 0 0 0 
0.00195312 0.00976562 1000.14 8.37975e-07 0.999999 1000.14 1.14038 1000.14 -0.000640339 0.00332569 11403.8 0 0 0 
0.00195312 0.0136719 1000.14 8.90575e-07 0.999999 1000.14 1.13766 1000.14 -0.000632818 0.00468833 11376.6 0 0 0 
0.00195312 0.0175781 1000.13 9.48374e-07 0.999999 1000.14 1.13537 1000.13 -0.000625075 0.00598437 11353.7 0 0 0 
0.00195312 0.0214844 1000.13 1.01089e-06 0.999999 1000.13 1.13281 1000.13 -0.000618673 0.00729015 11328.1 0 0 0 
0.00195312 0.0253906 1000.13 1.07913e-06 0.999999 1000.13 1.1304 1000.13 -0.000614653 0.00856928 11304 0 0 0 
0.00195312 0.0292969 1000.13 1.15212e-06 0.999999 1000.13 1.1279 1000.13 -0.000613426 0.00985147 11279 0 0 0 
0.00195312 0.0332031 1000.12 1.22382e-06 0.999999 1000.13 1.12545 1000.12 -0.000614897 0.0111285 11254.5 0 0 0 
0.00195312 0.0371094 1000.12 1.28159e-06 0.999999 1000.12 1.12296 1000.12 -0.000618663 0.0124136 11229.6 0 0 0 
0.00195312 0.0410156 1000.12 1.3071e-06 0.999999 1000.12 1.12049 1000.12 -0.000624192 0.013706 11204.9 0 0 0 
0.00195312 0.0449219 1000.12 1.27989e-06 0.999999 1000.12 1.11801 1000.12 -0.000630934 0.0150114 11180.1 0 0 0 
0.00195312 0.0488281 1000.11 1.18334e-06 0.999999 1000.12 1.11553 1000.11 -0.000638341 0.0163302 11155.3 0 0 0 
0.00195312 0.0527344 1000.11 1.01234e-06 0.999999 1000.11 1.11305 1000.11 -0.000645814 0.0176638 11130.5 0 0 0 
0.00195312 0.0566406 1000.11 7.80762e-07 0.999999 1000.11 1.11056 1000.11 -0.000652641 0.0190114 11105.6 0 0 0 
0.00195312 0.0605469 1000.11 5.26695e-07 1 1000.11 1.10807 1000.11 -0.000657987 0.0203709 11080.7 0 0 0 
0.00195312 0.0644531 1000.11 3.12635e-07 1 1000.11 1.10558 1000.11 -0.00066101 0.0217384 11055.8 0 0 0 
0.00195312 0.0683594 1000.1 2.18495e-07 1 1000.1 1.10309 1000.1 -0.000661129 0.0231087 11030.9 0 0 0 
0.00195312 0.0722656 1000.1 3.26147e-07 1 1000.1 1.10059 1000.1 -0.000658415 0.0244758 11005.9 0 0 0 
0.00195312 0.0761719 1000.1 6.96429e-07 0.999999 1000.1 1.09809 1000.1 -0.000654025 0.0258351 10980.9 0 0 0 
0.00195312 0.0800781 1000.09 1.34234e-06 0.999999 1000.1 1.09559 1000.09 -0.000650491 0.0271854 10955.9 0 0 0 
0.00195312 0.0839844 1000.09 2.20522e-06 0.999998 1000.09 1.09308 1000.09 -0.000651706 0.0285323 10930.8 0 0 0 
0.00195312 0.0878906 1000.09 3.14306e-06 0.999997 1000.09 1.09057 1000.09 -0.000662415 0.0298896 10905.7 0 0 0 
0.00195312 0.0917969 1000.08 3.9407e-06 0.999996 1000.09 1.08806 1000.08 -0.000687091 0.0312817 10880.6 0 0 0 
0.00195312 0.0957031 1000.08 4.34929e-06 0.999996 1000.09 1.08554 1000.08 -0.000728319 0.0327378 10855.4 0 0 0 
0.00195312 0.0996094 1000.08 4.15727e-06 0.999996 1000.08 1.08303 1000.08 -0.000784948 0.0342934 10830.3 0 0 0 
0.00195312 0.103516 1000.08 3.28765e-06 0.999997 1000.08 1.08049 1000.08 -0.000850729 0.0359685 10804.9 0 0 0 
0.00195312 0.107422 1000.08 1.90835e-06 0.999998 1000.08 1.07804 1000.08 -0.000913919 0.0377756 10780.4 0 0 0 
0.00195312 0.111328 1000.08 5.37521e-07 1 1000.08 1.07566 1000.08 -0.000959329 0.0396644 10756.6 0 0 0 
0.00195312 0.115234 1000.07 1.25149e-07 1 1000.07 1.0742 1000.07 -0.000974896 0.0415819 10742 1 0 0 
0.00195312 0.119141 1000.07 2.10329e-06 0.999998 1000.07 1.07009 1000.07 -0.000966179 0.0436587 10700.9 0 0 0 
0.00195312 0.123047 1000.06 8.14112e-06 0.999992 1000.07 1.06789 1000.06 -0.000941501 0.0455833 10678.9 0 0 0 
0.00195312 0.126953 1000.05 1.82913e-05 0.999983 1000.07 1.06515 1000.05 -0.000913766 0.0475028 10651.5 0 0 0 
0.00195312 0.130859 1000.03 3.11648e-05 0.999971 1000.06 1.06271 1000.03 -0.000893254 0.0493355 10627.1 0 0 0 
0.00195312 0.134766 1000.02 4.42898e-05 0.999958 1000.06 1.06008 1000.02 -0.000885418 0.0511573 10600.8 0 0 0 
0.00195312 0.138672 1000.01 5.46359e-05 0.999948 1000.06 1.05755 1000.01 -0.000891094 0.0529651 10575.5 0 0 0 
0.00195312 0.142578 999.999 5.93607e-05 0.999944 1000.05 1.05496 999.999 -0.000907752 0.0548015 10549.6 0 0 0 
0.00195312 0.146484 999.999 5.66989e-05 0.999946 1000.05 1.05239 999.999 -0.000930984 0.0566738 10523.9 0 0 0 
0.00195312 0.150391 1000.01 4.69594e-05 0.999955 1000.05 1.0498 1000.01 -0.000955982 0.058596 10498 0 0 0 
0.00195312 0.154297 1000.02 3.35555e-05 0.999968 1000.05 1.04722 1000.02 -0.000978623 0.0605636 10472.2 0 0 0 
0.00195312 0.158203 1000.02 2.40545e-05 0.999977 1000.04 1.04463 1000.02 -0.000996106 0.0625709 10446.3 0 0 0 
0.00195312 0.162109 1000.01 3.13175e-05 0.99997 1000.04 1.04203 1000.01 -0.00100716 0.0646053 10420.3 0 0 0 
0.00195312 0.166016 999.967 7.49234e-05 0.999928 1000.04 1.03942 999.967 -0.00101197 0.0666556 10394.2 0 0 0 
0.00195312 0.169922 999.86 0.00018323 0.999823 1000.04 1.03681 999.86 -0.00101194 0.0687119 10368.1 0 0 0 
0.00195312 0.173828 999.651 0.000396554 0.999617 1000.03 1.03419 999.651 -0.00100944 0.07077 10341.9 0 0 0 
0.00195312 0.177734 999.283 0.000771982 0.999252 1000.03 1.03157 999.284 -0.00100749 0.0728322 10315.7 0 0 0 
0.00195312 0.181641 998.678 0.00138993 0.998649 1000.03 1.02894 998.679 -0.00100936 0.0749094 10289.4 0 0 0 
0.00195312 0.185547 997.726 0.0023609 0.9977 1000.03 1.02631 997.728 -0.00101802 0.0770214 10263.1 0 0 0 
0.00195312 0.189453 996.285 0.00382749 0.996261 1000.02 1.02369 996.288 -0.00103562 0.0791966 10236.9 0 0 0 
0.00195312 0.193359 994.187 0.00595715 0.994166 1000.02 1.02106 994.193 -0.00106308 0.081471 10210.6 0 0 0 
0.00195312 0.197266 991.243 0.00893743 0.991224 1000.02 1.01845 991.252 -0.00109984 0.0838848 10184.5 0 0 0 
0.00195312 0.201172 987.209 0.0130091 0.987194 1000.02 1.01584 987.222 -0.0011439 0.0864808 10158.4 0 0 0 
0.00195312 0.205078 981.675 0.0185807 0.981662 1000.01 1.01325 981.694 -0.00119195 0.0893026 10132.5 0 0 0 
0.00195312 0.208984 973.823 0.0264672 0.973813 1000.01 1.01069 973.85 -0.0012395 0.0924007 10106.9 0 0 0 
0.00195312 0.212891 961.983 0.0383353 0.961975 1000.01 1.00817 962.022 -0.00128095 0.0958444 10081.7 0 0 0 
0.00195312 0.216797 942.734 0.0575981 0.942729 1000.01 1.00571 942.792 -0.00131053 0.0997483 10057.1 0 0 0 
0.00195312 0.220703 908.982 0.0913254 0.908979 1000 1.00334 909.073 -0.0013243 0.104325 10033.4 0 0 0 
0.00195312 0.224609 848.984 0.151194 0.848983 1000 1.00117 849.135 -0.00132345 0.109965 10011.7 0 0 0 
0.00195312 0.228516 755.035 0.244808 0.755035 999.999 0.999358 755.279 -0.00131633 0.11722 9993.58 0 0 0 
0.00195312 0.232422 632.339 0.366959 0.63234 999.998 0.998094 632.706 -0.00131368 0.126429 9980.94 0 0 0 
0.00195312 0.236328 494.39 0.504349 0.494391 999.998 0.997508 494.894 -0.00132684 0.137211 9975.08 0 0 0 
0.00195312 0.240234 357.314 0.641069 0.357315 999.997 0.997485 357.955 -0.00136547 0.148768 9974.85 0 0 0 
0.00195312 0.244141 236.939 0.761339 0.23694 999.998 0.997744 237.701 -0.00143364 0.160251 9977.44 0 0 0 
0.00195312 0.248047 145.961 0.852384 0.145961 999.998 0.998063 146.814 -0.00152788 0.170755 9980.63 0 0 0 
0.00195312 0.251953 88.5334 0.90994 0.0885335 999.998 0.998325 89.4433 -0.00163746 0.180238 9983.25 0 0 0 
0.00195312 0.255859 56.35 0.942251 0.0563501 999.999 0.998517 57.2922 -0.00174839 0.188799 9985.17 0 0 0 
0.00195312 0.259766 37.9219 0.960789 0.0379219 999.999 0.99866 38.8826 -0.0018489 0.196563 9986.6 0 0 0 
0.00195312 0.263672 26.5202 0.97228 0.0265202 999.999 0.998767 27.4924 -0.00192973 0.203707 9987.67 0 0 0 
0.00195312 0.267578 18.8964 0.979974 0.0188964 999.999 0.998849 19.8764 -0.00198012 0.210359 9988.49 0 0 0 
0.00195312 0.271484 13.4599 0.985466 0.0134599 999.999 0.998912 14.4454 -0.00198404 0.216585 9989.12 0 0 0 
0.00195312 0.275391 9.43253 0.989536 0.00943254 999.999 0.998959 10.4221 -0.001917 0.222384 9989.59 0 0 0 
0.00195312 0.279297 6.42975 0.992571 0.00642976 999.999 0.998994 7.42232 -0.00174502 0.227674 9989.94 0 0 0 
0.00195312 0.283203 4.23379 0.99479 0.00423379 999.999 0.99902 5.22858 -0.00143134 0.232282 9990.2 0 0 0 
0.00195312 0.287109 2.68132 0.99636 0.00268132 999.999 0.999038 3.67768 -0.000957386 0.235958 9990.38 0 0 0 
0.00195312 0.291016 1.62522 0.997428 0.00162522 999.999 0.999052 2.62264 -0.000337055 0.238435 9990.52 0 0 0 
0.00195312 0.294922 0.934574 0.998128 0.000934575 999.999 0.999061 1.9327 0.00038019 0.239495 9990.61 0 0 0 
0.00195312 0.298828 0.5028 0.998566 0.0005028 999.999 0.999069 1.50137 0.00109453 0.239065 9990.69 0 0 0 
0.00195312 0.302734 0.249118 0.998826 0.000249118 999.999 0.999074 1.24794 0.00173485 0.237233 9990.74 0 0 0 
0.00195312 0.306641 0.114271 0.998965 0.000114271 999.999 0.999079 1.11324 0.00224146 0.23421 9990.79 0 0 0 
0.00195312 0.310547 0.0550328 0.999029 5.50329e-05 999.999 0.999084 1.05406 0.0025819 0.230309 9990.84 0 0 0 
0.00195312 0.314453 0.0398741 0.999048 3.98741e-05 999.999 0.999088 1.03892 0.00276881 0.225859 9990.88 0 0 0 
0.00195312 0.318359 0.0461423 0.999046 4.61423e-05 999.999 0.999092 1.04519 0.0028438 0.221125 9990.92 0 0 0 
0.00195312 0.322266 0.0583622 0.999037 5.83622e-05 999.999 0.999096 1.0574 0.00284776 0.216286 9990.96 0 0 0 
0.00195312 0.326172 0.0671245 0.999032 6.71246e-05 999.999 0.9991 1.06616 0.00280985 0.211452 9991 0 0 0 
0.00195312 0.330078 0.0681037 0.999035 6.81038e-05 999.999 0.999103 1.06714 0.00275348 0.206684 9991.03 0 0 0 
0.00195312 0.333984 0.06093 0.999046 6.093e-05 999.999 0.999107 1.05998 0.00270334 0.201995 9991.07 0 0 0 
0.00195312 0.337891 0.0478612 0.999062 4.78613e-05 999.999 0.99911 1.04692 0.00268246 0.197347 9991.1 0 0 0 
0.00195312 0.341797 0.03239 0.999081 3.239e-05 999.999 0.999113 1.03147 0.00269784 0.192679 9991.13 0 0 0 
0.00195312 0.345703 0.0180088 0.999098 1.80088e-05 999.999 0.999116 1.01711 0.00272991 0.187924 9991.16 0 0 0 
0.00195312 0.349609 0.00731743 0.999112 7.31744e-06 999.999 0.999119 1.00643 0.00274401 0.183106 9991.19 0 0 0 
0.00195312 0.353516 0.00149922 0.99912 1.49922e-06 999.999 0.999121 1.00062 0.00272239 0.178275 9991.21 0 0 0 
0.00195312 0.357422 3.46389e-05 0.999112 3.46389e-08 1000 0.999112 0.999146 0.00269515 0.173592 9991.12 1 0 0 
0.00195312 0.361328 0.00046045 0.999126 4.60451e-07 999.999 0.999127 0.999587 0.00273915 0.168587 9991.27 0 0 0 
0.00195312 0.365234 0.00159396 0.999127 1.59396e-06 999.999 0.999129 1.00072 0.00279467 0.163581 9991.29 0 0 0 
0.00195312 0.369141 0.00272246 0.999128 2.72247e-06 999.999 0.999131 1.00185 0.00280755 0.158483 9991.31 0 0 0 
0.00195312 0.373047 0.00343567 0.999129 3.43568e-06 999.999 0.999133 1.00256 0.00276983 0.153401 9991.33 0 0 0 
0.00195312 0.376953 0.00356852 0.999131 3.56852e-06 999.999 0.999135 1.0027 0.00270819 0.148395 9991.35 0 0 0 
0.00195312 0.380859 0.00317518 0.999133 3.17518e-06 999.999 0.999136 1.00231 0.00265163 0.14349 9991.36 0 0 0 
0.00195312 0.384766 0.00246438 0.999135 2.46438e-06 999.999 0.999138 1.0016 0.00261059 0.138657 9991.38 0 0 0 
0.00195312 0.388672 0.00169202 0.999138 1.69202e-06 999.999 0.999139 1.00083 0.00257911 0.133875 9991.39 0 0 0 
0.00195312 0.392578 0.00105805 0.99914 1.05805e-06 999.999 0.999141 1.0002 0.00254882 0.129132 9991.41 0 0 0 
0.00195312 0.396484 0.000654622 0.999141 6.54622e-07 999.999 0.999142 0.999796 0.00251886 0.124431 9991.42 0 0 0 
0.00195312 0.400391 0.000475524 0.999142 4.75524e-07 999.999 0.999143 0.999618 0.00249499 0.119765 9991.43 0 0 0 
0.00195312 0.404297 0.000460966 0.999143 4.60966e-07 999.999 0.999144 0.999604 0.00248261 0.115116 9991.44 0 0 0 
0.00195312 0.408203 0.00054252 0.999144 5.42521e-07 999.999 0.999145 0.999687 0.00248158 0.110463 9991.45 0 0 0 
0.00195312 0.412109 0.000667456 0.999145 6.67457e-07 999.999 0.999145 0.999812 0.00248652 0.105788 9991.45 0 0 0 
0.00195312 0.416016 0.000802384 0.999145 8.02385e-07 999.999 0.999146 0.999948 0.00249079 0.101087 9991.46 0 0 0 
0.00195312 0.419922 0.000927249 0.999146 9.27249e-07 999.999 0.999146 1.00007 0.00249015 0.0963661 9991.46 0 0 0 
0.00195312 0.423828 0.00102956 0.999146 1.02956e-06 999.999 0.999147 1.00018 0.00248385 0.0916372 9991.47 0 0 0 
0.00195312 0.427734 0.00110215 0.999146 1.10215e-06 999.999 0.999147 1.00025 0.00247355 0.0869109 9991.47 0 0 0 
0.00195312 0.431641 0.00114281 0.999146 1.14281e-06 999.999 0.999147 1.00029 0.00246158 0.0821933 9991.47 0 0 0 
0.00195312 0.435547 0.00115372 0.999146 1.15372e-06 999.999 0.999147 1.0003 0.00244978 0.0774866 9991.47 0 0 0 
0.00195312 0.439453 0.00114008 0.999146 1.14008e-06 999.999 0.999147 1.00029 0.0024393 0.0727902 9991.47 0 0 0 
0.00195312 0.443359 0.00110864 0.999145 1.10864e-06 999.999 0.999146 1.00025 0.00243074 0.0681013 9991.46 0 0 0 
0.00195312 0.447266 0.00106684 0.999145 1.06684e-06 999.999 0.999146 1.00021 0.00242434 0.0634168 9991.46 0 0 0 
0.00195312 0.451172 0.00102225 0.999144 1.02225e-06 999.999 0.999145 1.00017 0.00241996 0.058733 9991.45 0 0 0 
0.00195312 0.455078 0.000982033 0.999144 9.82034e-07 999.999 0.999145 1.00013 0.00241718 0.0540474 9991.45 0 0 0 
0.00195312 0.458984 0.00095199 0.999143 9.5199e-07 999.999 0.999144 1.00009 0.00241534 0.0493575 9991.44 0 0 0 
0.00195312 0.462891 0.000935585 0.999142 9.35586e-07 999.999 0.999143 1.00008 0.00241378 0.0446643 9991.43 0 0 0 
0.00195312 0.466797 0.000933332 0.999141 9.33333e-07 999.999 0.999142 1.00007 0.00241203 0.0399662 9991.42 0 0 0 
0.00195312 0.470703 0.000942944 0.999139 9.42945e-07 999.999 0.99914 1.00008 0.00240996 0.0352685 9991.4 0 0 0 
0.00195312 0.474609 0.000960225 0.999138 9.60226e-07 999.999 0.999139 1.0001 0.0024077 0.0305652 9991.39 0 0 0 
0.00195312 0.478516 0.000980365 0.999136 9.80365e-07 999.999 0.999137 1.00012 0.00240555 0.0258686 9991.37 0 0 0 
0.00195312 0.482422 0.000999179 0.999135 9.9918e-07 999.999 0.999136 1.00013 0.0024038 0.0211581 9991.36 0 0 0 
0.00195312 0.486328 0.00101394 0.999133 1.01394e-06 999.999 0.999134 1.00015 0.00240265 0.0164669 9991.34 0 0 0 
0.00195312 0.490234 0.00102362 0.999131 1.02362e-06 999.999 0.999132 1.00015 0.00240211 0.011731 9991.32 0 0 0 
0.00195312 0.494141 0.00102863 0.999129 1.02863e-06 999.999 0.99913 1.00016 0.00240197 0.00704766 9991.3 0 0 0 
0.00195312 0.498047 0.0010303 0.999126 1.0303e-06 999.999 0.999127 1.00016 0.00240201 0.00220016 9991.27 0 0 0 
0.00585938 0.00195312 1000.14 7.72125e-07 0.999999 1000.15 1.14513 1000.14 -0.00193195 0.000507126 11451.3 0 0 0 
0.00585938 0.00585938 1000.14 7.96495e-07 0.999999 1000.14 1.14219 1000.14 -0.00192438 0.00201178 11421.9 0 0 0 
0.00585938 0.00976562 1000.14 8.39059e-07 0.999999 1000.14 1.14026 1000.14 -0.00190809 0.00331653 11402.6 0 0 0 
0.00585938 0.0136719 1000.14 8.9176e-07 0.999999 1000.14 1.13754 1000.14 -0.00188616 0.00467717 11375.4 0 0 0 
0.00585938 0.0175781 1000.13 9.49669e-07 0.999999 1000.14 1.13525 1000.13 -0.00186358 0.00597259 11352.5 0 0 0 
0.00585938 0.0214844 1000.13 1.0123e-06 0.999999 1000.13 1.13269 1000.13 -0.00184489 0.00727897 11326.9 0 0 0 
0.00585938 0.0253906 1000.13 1.08064e-06 0.999999 1000.13 1.13028 1000.13 -0.00183311 0.00855951 11302.8 0 0 0 
0.00585938 0.0292969 1000.13 1.15374e-06 0.999999 1000.13 1.12778 1000.13 -0.00182948 0.00984347 11277.8 0 0 0 
0.00585938 0.0332031 1000.12 1.22552e-06 0.999999 1000.13 1.12533 1000.12 -0.00183376 0.0111222 11253.3 0 0 0 
0.00585938 0.0371094 1000.12 1.28333e-06 0.999999 1000.12 1.12284 1000.12 -0.0018448 0.0124084 11228.4 0 0 0 
0.00585938 0.0410156 1000.12 1.30884e-06 0.999999 1000.12 1.12037 1000.12 -0.00186109 0.0137015 11203.7 0 0 0 
0.00585938 0.0449219 1000.12 1.28155e-06 0.999999 1000.12 1.11789 1000.12 -0.00188104 0.015007 11178.9 0 0 0 
0.00585938 0.0488281 1000.11 1.18484e-06 0.999999 1000.12 1.11541 1000.11 -0.00190302 0.0163253 11154.1 0 0 0 
0.00585938 0.0527344 1000.11 1.0136e-06 0.999999 1000.11 1.11293 1000.11 -0.00192526 0.0176581 11129.3 0 0 0 
0.00585938 0.0566406 1000.11 7.81733e-07 0.999999 1000.11 1.11044 1000.11 -0.0019456 0.0190045 11104.4 0 0 0 
0.00585938 0.0605469 1000.11 5.27376e-07 1 1000.11 1.10795 1000.11 -0.00196155 0.0203627 11079.5 0 0 0 
0.00585938 0.0644531 1000.11 3.13099e-07 1 1000.11 1.10546 1000.11 -0.00197056 0.0217288 11054.6 0 0 0 
0.00585938 0.0683594 1000.1 2.189e-07 1 1000.1 1.10297 1000.1 -0.00197093 0.0230976 11029.7 0 0 0 
0.00585938 0.0722656 1000.1 3.26734e-07 1 1000.1 1.10047 1000.1 -0.00196288 0.0244633 11004.7 0 0 0 
0.00585938 0.0761719 1000.1 6.97508e-07 0.999999 1000.1 1.09797 1000.1 -0.0019499 0.0258215 10979.7 0 0 0 
0.00585938 0.0800781 1000.09 1.34424e-06 0.999999 1000.1 1.09546 1000.09 -0.00193962 0.0271712 10954.6 0 0 0 
0.00585938 0.0839844 1000.09 2.20824e-06 0.999998 1000.09 1.09296 1000.09 -0.00194367 0.0285184 10929.6 0 0 0 
0.00585938 0.0878906 1000.09 3.14737e-06 0.999997 1000.09 1.09045 1000.09 -0.00197621 0.0298767 10904.5 0 0 0 
0.00585938 0.0917969 1000.08 3.94626e-06 0.999996 1000.09 1.08794 1000.08 -0.00205048 0.0312708 10879.4 0 0 0 
0.00585938 0.0957031 1000.08 4.35573e-06 0.999996 1000.09 1.08542 1000.08 -0.00217399 0.0327294 10854.2 0 0 0 
0.00585938 0.0996094 1000.08 4.16389e-06 0.999996 1000.08 1.08291 1000.08 -0.00234294 0.0342867 10829.1 0 0 0 
0.00585938 0.103516 1000.08 3.29343e-06 0.999997 1000.08 1.08036 1000.08 -0.00253858 0.0359617 10803.6 0 0 0 
0.00585938 0.107422 1000.08 1.91226e-06 0.999998 1000.08 1.0779 1000.08 -0.00272633 0.0377659 10779 0 0 0 
0.00585938 0.111328 1000.08 5.39002e-07 0.999999 1000.08 1.07553 1000.08 -0.00286288 0.0396503 10755.3 0 0 0 
0.00585938 0.115234 1000.07 1.24941e-07 1 1000.07 1.07408 1000.07 -0.00291284 0.0415641 10740.8 1 0 0 
0.00585938 0.119141 1000.07 2.10461e-06 0.999998 1000.07 1.06995 1000.07 -0.00288411 0.0436404 10699.5 0 0 0 
0.00585938 0.123047 1000.06 8.15239e-06 0.999992 1000.07 1.06776 1000.06 -0.00280977 0.0455631 10677.6 0 0 0 
0.00585938 0.126953 1000.05 1.83209e-05 0.999983 1000.07 1.06502 1000.05 -0.00272748 0.047481 10650.2 0 0 0 
0.00585938 0.130859 1000.03 3.1217e-05 0.999971 1000.06 1.06258 1000.03 -0.00266649 0.049313 10625.8 0 0 0 
0.00585938 0.134766 1000.02 4.43617e-05 0.999958 1000.06 1.05995 1000.02 -0.00264296 0.0511344 10599.5 0 0 0 
0.00585938 0.138672 1000.01 5.47154e-05 0.999948 1000.06 1.05742 1000.01 -0.00265952 0.0529411 10574.2 0 0 0 
0.00585938 0.142578 999.998 5.94263e-05 0.999944 1000.05 1.05482 999.999 -0.00270871 0.0547753 10548.2 0 0 0 
0.00585938 0.146484 999.998 5.67223e-05 0.999946 1000.05 1.05226 999.998 -0.00277744 0.0566437 10522.6 0 0 0 
0.00585938 0.150391 1000 4.69115e-05 0.999955 1000.05 1.04967 1000.01 -0.0028514 0.0585603 10496.7 0 0 0 
0.00585938 0.154297 1000.02 3.34166e-05 0.999968 1000.05 1.04708 1000.02 -0.00291833 0.0605206 10470.8 0 0 0 
0.00585938 0.158203 1000.02 2.38282e-05 0.999977 1000.04 1.04449 1000.02 -0.00296991 0.062519 10444.9 0 0 0 
0.00585938 0.162109 1000.01 3.10435e-05 0.99997 1000.04 1.04189 1000.01 -0.00300247 0.0645433 10418.9 0 0 0 
0.00585938 0.166016 999.967 7.46846e-05 0.999928 1000.04 1.03929 999.968 -0.00301671 0.0665829 10392.9 0 0 0 
0.00585938 0.169922 999.86 0.000183143 0.999823 1000.04 1.03669 999.86 -0.00301705 0.068629 10366.9 0 0 0 
0.00585938 0.173828 999.65 0.000396734 0.999616 1000.03 1.03408 999.651 -0.0030107 0.0706787 10340.8 0 0 0 
0.00585938 0.177734 999.283 0.000772469 0.999251 1000.03 1.03147 999.283 -0.00300662 0.0727355 10314.7 0 0 0 
0.00585938 0.181641 998.677 0.00139056 0.998648 1000.03 1.02885 998.679 -0.00301427 0.0748113 10288.5 0 0 0 
0.00585938 0.185547 997.725 0.00236111 0.997699 1000.03 1.02624 997.728 -0.00304215 0.0769258 10262.4 0 0 0 
0.00585938 0.189453 996.286 0.00382609 0.996262 1000.02 1.02362 996.29 -0.00309626 0.0791069 10236.2 0 0 0 
0.00585938 0.193359 994.191 0.00595232 0.99417 1000.02 1.02101 994.197 -0.00317893 0.0813885 10210.1 0 0 0 
0.00585938 0.197266 991.253 0.00892696 0.991234 1000.02 1.0184 991.261 -0.00328835 0.0838089 10184 0 0 0 
0.00585938 0.201172 987.227 0.012991 0.987211 1000.02 1.0158 987.24 -0.00341858 0.0864081 10158 0 0 0 
0.00585938 0.205078 981.701 0.0185537 0.981688 1000.01 1.01322 981.72 -0.00356006 0.0892281 10132.2 0 0 0 
0.00585938 0.208984 973.859 0.0264308 0.973848 1000.01 1.01067 973.885 -0.0036999 0.0923181 10106.7 0 0 0 
0.00585938 0.212891 962.028 0.0382892 0.96202 1000.01 1.00815 962.066 -0.00382194 0.0957476 10081.5 0 0 0 
0.00585938 0.216797 942.789 0.0575415 0.942784 1000.01 1.00569 942.847 -0.00390821 0.099634 10056.9 0 0 0 
0.00585938 0.220703 909.049 0.0912569 0.909046 1000 1.00334 909.141 -0.00394762 0.104197 10033.4 0 0 0 
0.00585938 0.224609 849.063 0.151115 0.849062 1000 1.00117 849.214 -0.0039516 0.109838 10011.7 0 0 0 
0.00585938 0.228516 755.125 0.244718 0.755125 999.999 0.999361 755.369 -0.00394215 0.11711 9993.61 0 0 0 
0.00585938 0.232422 632.444 0.366856 0.632445 999.998 0.998097 632.811 -0.00394652 0.126345 9980.97 0 0 0 
0.00585938 0.236328 494.513 0.504228 0.494514 999.998 0.997511 495.017 -0.00399561 0.137167 9975.11 0 0 0 
0.00585938 0.240234 357.454 0.64093 0.357455 999.997 0.997487 358.095 -0.00411389 0.148772 9974.87 0 0 0 
0.00585938 0.244141 237.082 0.761197 0.237083 999.998 0.997745 237.843 -0.00431275 0.160304 9977.45 0 0 0 
0.00585938 0.248047 146.084 0.852262 0.146084 999.998 0.998063 146.936 -0.00458471 0.170853 9980.63 0 0 0 
0.00585938 0.251953 88.6212 0.909852 0.0886214 999.998 0.998325 89.5311 -0.0049019 0.180368 9983.25 0 0 0 
0.00585938 0.255859 56.4093 0.942191 0.0564093 999.999 0.998517 57.3514 -0.00522475 0.188949 9985.17 0 0 0 
0.00585938 0.259766 37.9637 0.960747 0.0379638 999.999 0.998659 38.9245 -0.00551799 0.196723 9986.59 0 0 0 
0.00585938 0.263672 26.551 0.972249 0.026551 999.999 0.998767 27.5233 -0.00575317 0.203867 9987.67 0 0 0 
0.00585938 0.267578 18.9197 0.979951 0.0189197 999.999 0.998849 19.8997 -0.0058977 0.210507 9988.49 0 0 0 
0.00585938 0.271484 13.4776 0.985448 0.0134776 999.999 0.998911 14.4631 -0.0059042 0.216709 9989.11 0 0 0 
0.00585938 0.275391 9.44594 0.989523 0.00944595 999.999 0.998959 10.4355 -0.00570115 0.222475 9989.59 0 0 0 
0.00585938 0.279297 6.43971 0.992561 0.00643972 999.999 0.998994 7.43227 -0.0051871 0.227726 9989.94 0 0 0 
0.00585938 0.283203 4.24097 0.994783 0.00424097 999.999 0.99902 5.23575 -0.00425037 0.23229 9990.2 0 0 0 
0.00585938 0.287109 2.68629 0.996355 0.00268629 999.999 0.999038 3.68264 -0.00283689 0.235916 9990.38 0 0 0 
0.00585938 0.291016 1.62848 0.997425 0.00162848 999.999 0.999052 2.62591 -0.00099758 0.238338 9990.52 0 0 0 
0.00585938 0.294922 0.936591 0.998126 0.000936592 999.999 0.999062 1.93472 0.0011054 0.23937 9990.62 0 0 0 
0.00585938 0.298828 0.50394 0.998566 0.000503941 999.999 0.999069 1.50251 0.00322853 0.238941 9990.69 0 0 0 
0.00585938 0.302734 0.249678 0.998826 0.000249678 999.999 0.999075 1.2485 0.00513763 0.237114 9990.75 0 0 0 
0.00585938 0.306641 0.114475 0.998966 0.000114475 999.999 0.99908 1.11344 0.00664578 0.234105 9990.8 0 0 0 
0.00585938 0.310547 0.0550457 0.999029 5.50457e-05 999.999 0.999084 1.05408 0.00765645 0.230226 9990.84 0 0 0 
0.00585938 0.314453 0.0398068 0.999049 3.98068e-05 999.999 0.999089 1.03886 0.00821058 0.225807 9990.89 0 0 0 
0.00585938 0.318359 0.0460621 0.999046 4.60621e-05 999.999 0.999093 1.04511 0.00843619 0.221107 9990.93 0 0 0 
0.00585938 0.322266 0.0583031 0.999038 5.83032e-05 999.999 0.999096 1.05734 0.00845323 0.216295 9990.96 0 0 0 
0.00585938 0.326172 0.0670981 0.999033 6.70982e-05 999.999 0.9991 1.06613 0.00834648 0.211479 9991 0 0 0 
0.00585938 0.330078 0.068108 0.999036 6.81081e-05 999.999 0.999104 1.06714 0.00818508 0.206713 9991.04 0 0 0 
0.00585938 0.333984 0.0609562 0.999046 6.09562e-05 999.999 0.999107 1.06 0.00804168 0.202014 9991.07 0 0 0 
0.00585938 0.337891 0.0478978 0.999063 4.78979e-05 999.999 0.999111 1.04696 0.00798286 0.197345 9991.11 0 0 0 
0.00585938 0.341797 0.0324253 0.999081 3.24254e-05 999.999 0.999114 1.03151 0.00802715 0.192652 9991.14 0 0 0 
0.00585938 0.345703 0.0180345 0.999099 1.80345e-05 999.999 0.999117 1.01713 0.00811563 0.187883 9991.17 0 0 0 
0.00585938 0.349609 0.00733037 0.999112 7.33038e-06 999.999 0.99912 1.00644 0.00814851 0.183069 9991.2 0 0 0 
0.00585938 0.353516 0.00150268 0.99912 1.50268e-06 999.999 0.999122 1.00062 0.00808771 0.178255 9991.22 0 0 0 
0.00585938 0.357422 3.48999e-05 0.999112 3.48999e-08 1000 0.999112 0.999147 0.00803553 0.17359 9991.12 1 0 0 
0.00585938 0.361328 0.000459193 0.999127 4.59193e-07 999.999 0.999127 0.999586 0.00813648 0.168604 9991.27 0 0 0 
0.00585938 0.365234 0.00158934 0.999128 1.58934e-06 999.999 0.999129 1.00072 0.00829422 0.163624 9991.29 0 0 0 
0.00585938 0.369141 0.00271463 0.999129 2.71464e-06 999.999 0.999131 1.00184 0.00833826 0.158548 9991.31 0 0 0 
0.00585938 0.373047 0.00342752 0.99913 3.42753e-06 999.999 0.999133 1.00256 0.00823309 0.153475 9991.33 0 0 0 
0.00585938 0.376953 0.00356348 0.999132 3.56348e-06 999.999 0.999135 1.00269 0.008055 0.148464 9991.35 0 0 0 
0.00585938 0.380859 0.00317479 0.999134 3.17479e-06 999.999 0.999137 1.00231 0.00788859 0.143544 9991.37 0 0 0 
0.00585938 0.384766 0.00246755 0.999136 2.46755e-06 999.999 0.999138 1.0016 0.00776565 0.138696 9991.38 0 0 0 
0.00585938 0.388672 0.00169618 0.999138 1.69619e-06 999.999 0.99914 1.00083 0.0076705 0.1339 9991.4 0 0 0 
0.00585938 0.392578 0.00106096 0.99914 1.06096e-06 999.999 0.999141 1.0002 0.0075794 0.129146 9991.41 0 0 0 
0.00585938 0.396484 0.000655475 0.999142 6.55475e-07 999.999 0.999142 0.999797 0.00748968 0.124435 9991.42 0 0 0 
0.00585938 0.400391 0.000474821 0.999143 4.74821e-07 999.999 0.999143 0.999618 0.00741788 0.119759 9991.43 0 0 0 
0.00585938 0.404297 0.000459686 0.999144 4.59686e-07 999.999 0.999144 0.999604 0.00737981 0.115104 9991.44 0 0 0 
0.00585938 0.408203 0.000541369 0.999145 5.4137e-07 999.999 0.999145 0.999686 0.00737533 0.110447 9991.45 0 0 0 
0.00585938 0.412109 0.00066665 0.999145 6.66651e-07 999.999 0.999146 0.999812 0.00738893 0.105771 9991.46 0 0 0 
0.00585938 0.416016 0.00080186 0.999146 8.01861e-07 999.999 0.999147 0.999948 0.00740114 0.101071 9991.47 0 0 0 
0.00585938 0.419922 0.000926932 0.999146 9.26933e-07 999.999 0.999147 1.00007 0.00739927 0.0963518 9991.47 0 0 0 
0.00585938 0.423828 0.00102946 0.999146 1.02946e-06 999.999 0.999147 1.00018 0.00738087 0.0916247 9991.47 0 0 0 
0.00585938 0.427734 0.00110226 0.999146 1.10226e-06 999.999 0.999148 1.00025 0.00735063 0.0868995 9991.48 0 0 0 
0.00585938 0.431641 0.00114307 0.999146 1.14307e-06 999.999 0.999148 1.00029 0.00731532 0.0821825 9991.48 0 0 0 
0.00585938 0.435547 0.00115399 0.999146 1.154e-06 999.999 0.999148 1.0003 0.00728043 0.0774759 9991.48 0 0 0 
0.00585938 0.439453 0.00114025 0.999146 1.14025e-06 999.999 0.999147 1.00029 0.00724939 0.0727793 9991.47 0 0 0 
0.00585938 0.443359 0.00110868 0.999146 1.10868e-06 999.999 0.999147 1.00025 0.00722398 0.0680901 9991.47 0 0 0 
0.00585938 0.447266 0.00106678 0.999145 1.06678e-06 999.999 0.999147 1.00021 0.00720486 0.0634054 9991.47 0 0 0 
0.00585938 0.451172 0.00102216 0.999145 1.02216e-06 999.999 0.999146 1.00017 0.00719172 0.0587216 9991.46 0 0 0 
0.00585938 0.455078 0.000981967 0.999144 9.81968e-07 999.999 0.999145 1.00013 0.0071833 0.0540364 9991.45 0 0 0 
0.00585938 0.458984 0.000951969 0.999143 9.5197e-07 999.999 0.999144 1.0001 0.00717773 0.0493473 9991.44 0 0 0 
0.00585938 0.462891 0.000935602 0.999142 9.35602e-07 999.999 0.999143 1.00008 0.00717308 0.0446552 9991.43 0 0 0 
0.00585938 0.466797 0.000933366 0.999141 9.33367e-07 999.999 0.999142 1.00007 0.00716802 0.0399583 9991.42 0 0 0 
0.00585938 0.470703 0.000942978 0.99914 9.42979e-07 999.999 0.999141 1.00008 0.00716205 0.0352618 9991.41 0 0 0 
0.00585938 0.474609 0.00096025 0.999138 9.60251e-07 999.999 0.999139 1.0001 0.0071555 0.0305596 9991.39 0 0 0 
0.00585938 0.478516 0.000980377 0.999137 9.80378e-07 999.999 0.999138 1.00012 0.00714923 0.0258639 9991.38 0 0 0 
0.00585938 0.482422 0.000999179 0.999135 9.9918e-07 999.999 0.999136 1.00013 0.00714411 0.0211544 9991.36 0 0 0 
0.00585938 0.486328 0.00101393 0.999133 1.01393e-06 999.999 0.999134 1.00015 0.00714071 0.0164641 9991.34 0 0 0 
0.00585938 0.490234 0.00102361 0.999131 1.02361e-06 999.999 0.999132 1.00015 0.00713907 0.011729 9991.32 0 0 0 
0.00585938 0.494141 0.00102862 0.999129 1.02862e-06 999.999 0.999131 1.00016 0.00713866 0.00704647 9991.31 0 0 0 
0.00585938 0.498047 0.00103029 0.999127 1.03029e-06 999.999 0.999128 1.00016 0.00713874 0.00219976 9991.28 0 0 0 
0.00976562 0.00195312 1000.14 7.7311e-07 0.999999 1000.15 1.14516 1000.14 -0.00321163 0.000502259 11451.6 0 0 0 
0.00976562 0.00585938 1000.14 7.97539e-07 0.999999 1000.14 1.14222 1000.14 -0.00319983 0.00199782 11422.2 0 0 0 
0.00976562 0.00976562 1000.14 8.40218e-07 0.999999 1000.14 1.14028 1000.14 -0.00317448 0.00329513 11402.8 0 0 0 
0.00976562 0.0136719 1000.14 8.9307e-07 0.999999 1000.14 1.13757 1000.14 -0.00314034 0.00465109 11375.7 0 0 0 
0.00976562 0.0175781 1000.13 9.51142e-07 0.999999 1000.14 1.13528 1000.13 -0.00310514 0.00594494 11352.8 0 0 0 
0.00976562 0.0214844 1000.13 1.01393e-06 0.999999 1000.13 1.13272 1000.13 -0.00307587 0.00725255 11327.2 0 0 0 
0.00976562 0.0253906 1000.13 1.08242e-06 0.999999 1000.13 1.13031 1000.13 -0.0030573 0.00853619 11303.1 0 0 0 
0.00976562 0.0292969 1000.13 1.15563e-06 0.999999 1000.13 1.12781 1000.13 -0.00305142 0.00982401 11278.1 0 0 0 
0.00976562 0.0332031 1000.12 1.22747e-06 0.999999 1000.13 1.12536 1000.12 -0.00305802 0.0111063 11253.6 0 0 0 
0.00976562 0.0371094 1000.12 1.28529e-06 0.999999 1000.12 1.12287 1000.12 -0.00307548 0.0123952 11228.7 0 0 0 
0.00976562 0.0410156 1000.12 1.31072e-06 0.999999 1000.12 1.1204 1000.12 -0.00310154 0.0136895 11204 0 0 0 
0.00976562 0.0449219 1000.12 1.28327e-06 0.999999 1000.12 1.11792 1000.12 -0.00313378 0.0149949 11179.2 0 0 0 
0.00976562 0.0488281 1000.11 1.18633e-06 0.999999 1000.12 1.11544 1000.11 -0.00316962 0.016312 11154.4 0 0 0 
0.00976562 0.0527344 1000.11 1.01482e-06 0.999999 1000.11 1.11295 1000.11 -0.00320609 0.0176427 11129.5 0 0 0 
0.00976562 0.0566406 1000.11 7.82685e-07 0.999999 1000.11 1.11047 1000.11 -0.00323961 0.0189863 11104.7 0 0 0 