TITLE=FvSolution
VARIABLES=X Y RHO1Z1 RHO2Z2 Z1 RHO1 RHO2 RHO U V PRE theta lambdaX lambdaY 
ZONE T=TA, I=128, J=128, DATAPACKING = POINT
0.00195312 0.00195312 1000.14 7.07285e-07 0.999999 1000.14 1.14415 1000.14 -0.000821862 0.000615753 11441.5 0 0 0 
0.00195312 0.00585938 1000.14 7.34884e-07 0.999999 1000.14 1.14124 1000.14 -0.000820339 0.00233462 11412.4 0 0 0 
0.00195312 0.00976562 1000.14 7.87547e-07 0.999999 1000.14 1.13931 1000.14 -0.000816825 0.00385803 11393.1 0 0 0 
0.00195312 0.0136719 1000.14 8.58945e-07 0.999999 1000.14 1.13662 1000.14 -0.000811681 0.00544055 11366.2 0 0 0 
0.00195312 0.0175781 1000.13 9.4364e-07 0.999999 1000.13 1.13434 1000.13 -0.000805773 0.00696101 11343.4 0 0 0 
0.00195312 0.0214844 1000.13 1.03829e-06 0.999999 1000.13 1.13181 1000.13 -0.000800138 0.00849395 11318.1 0 0 0 
0.00195312 0.0253906 1000.13 1.13884e-06 0.999999 1000.13 1.12943 1000.13 -0.000795794 0.010001 11294.3 0 0 0 
0.00195312 0.0292969 1000.13 1.23761e-06 0.999999 1000.13 1.12696 1000.13 -0.0007936 0.01151 11269.6 0 0 0 
0.00195312 0.0332031 1000.12 1.32124e-06 0.999999 1000.12 1.12454 1000.12 -0.000794185 0.0130123 11245.4 0 0 0 
0.00195312 0.0371094 1000.12 1.37076e-06 0.999999 1000.12 1.1221 1000.12 -0.00079788 0.014522 11221 0 0 0 
0.00195312 0.0410156 1000.12 1.36427e-06 0.999999 1000.12 1.11968 1000.12 -0.000804644 0.0160407 11196.8 0 0 0 
0.00195312 0.0449219 1000.12 1.28248e-06 0.999999 1000.12 1.11725 1000.12 -0.000813981 0.0175769 11172.5 0 0 0 
0.00195312 0.0488281 1000.11 1.11607e-06 0.999999 1000.11 1.11483 1000.11 -0.000824879 0.0191331 11148.3 0 0 0 
0.00195312 0.0527344 1000.11 8.73595e-07 0.999999 1000.11 1.11241 1000.11 -0.000835832 0.0207121 11124.1 0 0 0 
0.00195312 0.0566406 1000.11 5.87481e-07 0.999999 1000.11 1.10999 1000.11 -0.000844987 0.0223115 11099.9 0 0 0 
0.00195312 0.0605469 1000.11 3.15455e-07 1 1000.11 1.10758 1000.11 -0.000850485 0.0239264 11075.8 0 0 0 
0.00195312 0.0644531 1000.11 1.35185e-07 1 1000.11 1.10517 1000.11 -0.000850986 0.0255477 11051.7 0 0 0 
0.00195312 0.0683594 1000.1 1.3089e-07 1 1000.1 1.10276 1000.1 -0.000846312 0.0271652 11027.6 0 0 0 
0.00195312 0.0722656 1000.1 3.72766e-07 1 1000.1 1.10035 1000.1 -0.000838045 0.0287699 11003.5 0 0 0 
0.00195312 0.0761719 1000.1 8.92585e-07 0.999999 1000.1 1.09795 1000.1 -0.000829879 0.030358 10979.5 0 0 0 
0.00195312 0.0800781 1000.09 1.66132e-06 0.999998 1000.1 1.09555 1000.09 -0.000827504 0.031935 10955.5 0 0 0 
0.00195312 0.0839844 1000.09 2.57635e-06 0.999998 1000.09 1.09315 1000.09 -0.000837834 0.0335195 10931.5 0 0 0 
0.00195312 0.0878906 1000.09 3.46585e-06 0.999997 1000.09 1.09076 1000.09 -0.000867499 0.0351434 10907.6 0 0 0 
0.00195312 0.0917969 1000.08 4.11562e-06 0.999996 1000.09 1.08837 1000.08 -0.000920761 0.0368504 10883.7 0 0 0 
0.00195312 0.0957031 1000.08 4.31889e-06 0.999996 1000.09 1.08599 1000.08 -0.000997383 0.0386878 10859.9 0 0 0 
0.00195312 0.0996094 1000.08 3.94319e-06 0.999996 1000.08 1.08361 1000.08 -0.0010912 0.0406975 10836.1 0 0 0 
0.00195312 0.103516 1000.08 3.0013e-06 0.999997 1000.08 1.08123 1000.08 -0.00118997 0.0429011 10812.3 0 0 0 
0.00195312 0.107422 1000.08 1.70823e-06 0.999998 1000.08 1.07891 1000.08 -0.00127674 0.0452892 10789.1 0 0 0 
0.00195312 0.111328 1000.08 5.0536e-07 1 1000.08 1.07684 1000.08 -0.00133367 0.0477942 10768.4 0 0 0 
0.00195312 0.115234 1000.08 3.95383e-08 1 1000.08 1.07638 1000.08 -0.00135114 0.0502988 10763.8 1 0 0 
0.00195312 0.119141 1000.07 1.09886e-06 0.999999 1000.07 1.0713 1000.07 -0.00134312 0.0530565 10713 0 0 0 
0.00195312 0.123047 1000.06 4.81985e-06 0.999995 1000.07 1.06939 1000.06 -0.00131542 0.0556436 10693.9 0 0 0 
0.00195312 0.126953 1000.06 1.15671e-05 0.999989 1000.07 1.06691 1000.06 -0.00127818 0.0581806 10669.1 0 0 0 
0.00195312 0.130859 1000.04 2.0913e-05 0.99998 1000.06 1.06462 1000.04 -0.00124101 0.0606187 10646.2 0 0 0 
0.00195312 0.134766 1000.03 3.1728e-05 0.99997 1000.06 1.06222 1000.03 -0.00121146 0.0630011 10622.2 0 0 0 
0.00195312 0.138672 1000.02 4.2398e-05 0.99996 1000.06 1.05989 1000.02 -0.00119478 0.0653301 10598.9 0 0 0 
0.00195312 0.142578 1000.01 5.11852e-05 0.999952 1000.06 1.05752 1000.01 -0.00119372 0.0676455 10575.2 0 0 0 
0.00195312 0.146484 1000 5.66743e-05 0.999946 1000.06 1.05518 1000 -0.00120852 0.0699729 10551.8 0 0 0 
0.00195312 0.150391 999.998 5.82501e-05 0.999945 1000.05 1.05283 999.998 -0.00123723 0.072346 10528.3 0 0 0 
0.00195312 0.154297 999.997 5.65301e-05 0.999946 1000.05 1.0505 999.997 -0.00127635 0.0747874 10505 0 0 0 
0.00195312 0.158203 999.997 5.37109e-05 0.999949 1000.05 1.04816 999.997 -0.00132159 0.0773149 10481.6 0 0 0 
0.00195312 0.162109 999.994 5.38474e-05 0.999949 1000.05 1.04583 999.994 -0.00136863 0.0799355 10458.3 0 0 0 
0.00195312 0.166016 999.983 6.31789e-05 0.999939 1000.04 1.0435 999.983 -0.00141361 0.0826492 10435 0 0 0 
0.00195312 0.169922 999.954 9.07448e-05 0.999913 1000.04 1.04117 999.954 -0.00145363 0.0854477 10411.7 0 0 0 
0.00195312 0.173828 999.895 0.000149676 0.999856 1000.04 1.03884 999.895 -0.00148699 0.0883185 10388.4 0 0 0 
0.00195312 0.177734 999.786 0.000259687 0.999749 1000.04 1.03651 999.786 -0.00151336 0.0912457 10365.1 0 0 0 
0.00195312 0.181641 999.598 0.000451401 0.999564 1000.03 1.03418 999.598 -0.00153377 0.0942135 10341.8 0 0 0 
0.00195312 0.185547 999.283 0.000773146 0.999251 1000.03 1.03184 999.283 -0.00155049 0.0972077 10318.4 0 0 0 
0.00195312 0.189453 998.766 0.0013006 0.998737 1000.03 1.02951 998.767 -0.00156668 0.100217 10295.1 0 0 0 
0.00195312 0.193359 997.936 0.00214834 0.997909 1000.03 1.02719 997.938 -0.00158585 0.103233 10271.9 0 0 0 
0.00195312 0.197266 996.633 0.0034766 0.996608 1000.02 1.02487 996.636 -0.00161129 0.106248 10248.7 0 0 0 
0.00195312 0.201172 994.667 0.00547636 0.994644 1000.02 1.02256 994.672 -0.0016455 0.109256 10225.6 0 0 0 
0.00195312 0.205078 991.86 0.00832564 0.99184 1000.02 1.02028 991.868 -0.00168975 0.112245 10202.8 0 0 0 
0.00195312 0.208984 988.078 0.0121553 0.98806 1000.02 1.01803 988.09 -0.00174364 0.115201 10180.3 0 0 0 
0.00195312 0.212891 983.202 0.0170791 0.983187 1000.02 1.01582 983.22 -0.00180489 0.118108 10158.2 0 0 0 
0.00195312 0.216797 977.006 0.0233224 0.976992 1000.01 1.01368 977.029 -0.00186919 0.120938 10136.8 0 0 0 
0.00195312 0.220703 968.888 0.0314854 0.968877 1000.01 1.01164 968.92 -0.00193023 0.123644 10116.4 0 0 0 
0.00195312 0.224609 957.436 0.042987 0.957427 1000.01 1.00973 957.479 -0.00198151 0.126142 10097.3 0 0 0 
0.00195312 0.228516 939.639 0.0608515 0.939632 1000.01 1.00801 939.7 -0.00202097 0.128274 10080.1 0 0 0 
0.00195312 0.232422 909.42 0.0911804 0.909414 1000.01 1.00656 909.511 -0.00205167 0.129788 10065.6 0 0 0 
0.00195312 0.236328 857.418 0.143363 0.857414 1000.01 1.00545 857.562 -0.00207942 0.130177 10054.5 0 0 0 
0.00195312 0.240234 777.495 0.223582 0.777491 1000 1.00482 777.719 -0.00211222 0.128827 10048.2 0 0 0 
0.00195312 0.244141 672.437 0.329048 0.672434 1000 1.00452 672.766 -0.00216113 0.125281 10045.2 0 0 0 
0.00195312 0.248047 551.146 0.450827 0.551143 1000 1.00439 551.596 -0.00223169 0.119753 10043.9 0 0 0 
0.00195312 0.251953 425.047 0.577367 0.425046 1000 1.0042 425.625 -0.0023234 0.112416 10042 0 0 0 
0.00195312 0.255859 306.241 0.696409 0.30624 1000 1.00382 306.937 -0.00243234 0.104852 10038.2 0 0 0 
0.00195312 0.259766 205.901 0.796705 0.205901 1000 1.00328 206.698 -0.00255511 0.0980176 10032.8 0 0 0 
0.00195312 0.263672 131.959 0.870406 0.131959 1000 1.00272 132.829 -0.00268495 0.0928873 10027.2 0 0 0 
0.00195312 0.267578 85.2804 0.916777 0.0852803 1000 1.00225 86.1972 -0.00281174 0.0896715 10022.5 0 0 0 
0.00195312 0.271484 58.3199 0.943443 0.0583198 1000 1.00187 59.2633 -0.00292444 0.0882 10018.7 0 0 0 
0.00195312 0.275391 42.1808 0.959324 0.0421807 1000 1.00157 43.1401 -0.00301428 0.0882617 10015.7 0 0 0 
0.00195312 0.279297 31.5771 0.969708 0.031577 1000 1.00133 32.5468 -0.003075 0.089598 10013.3 0 0 0 
0.00195312 0.283203 23.8981 0.977204 0.023898 1000 1.00113 24.8753 -0.00309864 0.0919577 10011.3 0 0 0 
0.00195312 0.287109 17.9148 0.983038 0.0179148 1000 1.00097 18.8978 -0.00307133 0.0950878 10009.7 0 0 0 
0.00195312 0.291016 13.1066 0.987727 0.0131066 1000 1.00085 14.0943 -0.00297054 0.0987128 10008.5 0 0 0 
0.00195312 0.294922 9.27536 0.991468 0.00927535 1000 1.00075 10.2668 -0.00276887 0.102521 10007.5 0 0 0 
0.00195312 0.298828 6.32437 0.994351 0.00632436 1000 1.00068 7.31872 -0.00244728 0.10617 10006.8 0 0 0 
0.00195312 0.302734 4.15514 0.996471 0.00415514 1000 1.00063 5.15162 -0.00200974 0.109321 10006.3 0 0 0 
0.00195312 0.306641 2.63698 0.997954 0.00263698 1000 1.00059 3.63494 -0.00148495 0.111693 10005.9 0 0 0 
0.00195312 0.310547 1.61926 0.998946 0.00161926 1000 1.00057 2.61821 -0.000915827 0.113099 10005.7 0 0 0 
0.00195312 0.314453 0.960606 0.999586 0.000960605 1000 1.00055 1.96019 -0.00034186 0.113457 10005.5 0 0 0 
0.00195312 0.318359 0.548474 0.999984 0.000548474 1000 1.00053 1.54846 0.000204992 0.112768 10005.3 0 0 0 
0.00195312 0.322266 0.301475 1.00022 0.000301475 1000 1.00052 1.30169 0.000666608 0.111127 10005.2 0 0 0 
0.00195312 0.326172 0.162919 1.00035 0.000162919 1000 1.00051 1.16327 0.00101816 0.108724 10005.1 0 0 0 
0.00195312 0.330078 0.0934159 1.00041 9.34158e-05 1000 1.0005 1.09382 0.00126289 0.10577 10005 0 0 0 
0.00195312 0.333984 0.0652655 1.00043 6.52655e-05 1000 1.00049 1.06569 0.00141877 0.102461 10004.9 0 0 0 
0.00195312 0.337891 0.0588926 1.00043 5.88926e-05 1000 1.00049 1.05932 0.00150896 0.0989475 10004.9 0 0 0 
0.00195312 0.341797 0.0608178 1.00042 6.08178e-05 1000 1.00048 1.06123 0.00155116 0.095342 10004.8 0 0 0 
0.00195312 0.345703 0.0625387 1.00041 6.25386e-05 1000 1.00047 1.06295 0.00155389 0.0917278 10004.7 0 0 0 
0.00195312 0.349609 0.0597584 1.0004 5.97584e-05 1000 1.00046 1.06016 0.00152138 0.0881831 10004.6 0 0 0 
0.00195312 0.353516 0.0515756 1.0004 5.15756e-05 1000 1.00046 1.05198 0.00146257 0.0847628 10004.6 0 0 0 
0.00195312 0.357422 0.0394655 1.00041 3.94654e-05 1000 1.00045 1.03988 0.00139706 0.081514 10004.5 0 0 0 
0.00195312 0.361328 0.0260975 1.00042 2.60975e-05 1000 1.00044 1.02651 0.00135133 0.0783979 10004.4 0 0 0 
0.00195312 0.365234 0.0141912 1.00042 1.41912e-05 1000 1.00044 1.01461 0.00134459 0.0753962 10004.4 0 0 0 
0.00195312 0.369141 0.00565224 1.00042 5.65223e-06 1000 1.00043 1.00608 0.00137218 0.0723437 10004.3 0 0 0 
0.00195312 0.373047 0.00113917 1.00042 1.13917e-06 1000 1.00043 1.00156 0.00140619 0.0693093 10004.3 0 0 0 
0.00195312 0.376953 2.1288e-05 1.00041 2.1288e-08 999.999 1.00041 1.00044 0.00142066 0.0659468 10004.1 1 0 0 
0.00195312 0.380859 0.000548871 1.00041 5.48871e-07 1000 1.00041 1.00096 0.0014274 0.0631351 10004.1 0 0 0 
0.00195312 0.384766 0.00181847 1.00041 1.81847e-06 1000 1.00041 1.00223 0.0014273 0.0601907 10004.1 0 0 0 
0.00195312 0.388672 0.00302074 1.0004 3.02074e-06 1000 1.0004 1.00342 0.00141487 0.0572144 10004 0 0 0 
0.00195312 0.392578 0.0036359 1.00039 3.6359e-06 1000 1.0004 1.00403 0.00138625 0.0542996 10004 0 0 0 
0.00195312 0.396484 0.00352111 1.00039 3.52111e-06 1000 1.00039 1.00391 0.00134008 0.0514839 10003.9 0 0 0 
0.00195312 0.400391 0.00284842 1.00039 2.84841e-06 1000 1.00039 1.00323 0.00127976 0.048803 10003.9 0 0 0 
0.00195312 0.404297 0.00194068 1.00038 1.94068e-06 1000 1.00038 1.00232 0.00121396 0.0462745 10003.8 0 0 0 
0.00195312 0.408203 0.0011027 1.00038 1.10269e-06 1000 1.00038 1.00148 0.00115394 0.0438982 10003.8 0 0 0 
0.00195312 0.412109 0.000521951 1.00037 5.21951e-07 1000 1.00038 1.0009 0.00110905 0.0416516 10003.8 0 0 0 
0.00195312 0.416016 0.000253275 1.00037 2.53275e-07 1000 1.00037 1.00062 0.00108304 0.039499 10003.7 0 0 0 
0.00195312 0.419922 0.000255038 1.00037 2.55038e-07 1000 1.00037 1.00062 0.00107304 0.0374035 10003.7 0 0 0 
0.00195312 0.423828 0.000437086 1.00036 4.37086e-07 1000 1.00036 1.0008 0.00107196 0.0353389 10003.6 0 0 0 
0.00195312 0.427734 0.000698521 1.00036 6.98521e-07 1000 1.00036 1.00106 0.00107255 0.0332938 10003.6 0 0 0 
0.00195312 0.431641 0.000952218 1.00035 9.52217e-07 1000 1.00035 1.00131 0.00107028 0.031269 10003.5 0 0 0 
0.00195312 0.435547 0.00113937 1.00035 1.13937e-06 1000 1.00035 1.00149 0.001064 0.0292712 10003.5 0 0 0 
0.00195312 0.439453 0.00123527 1.00035 1.23527e-06 1000 1.00035 1.00158 0.00105463 0.0273069 10003.5 0 0 0 
0.00195312 0.443359 0.00124585 1.00034 1.24585e-06 1000 1.00034 1.00159 0.00104374 0.0253793 10003.4 0 0 0 
0.00195312 0.447266 0.0011968 1.00034 1.1968e-06 1000 1.00034 1.00154 0.00103266 0.0234893 10003.4 0 0 0 
0.00195312 0.451172 0.00112001 1.00034 1.12001e-06 1000 1.00034 1.00146 0.00102236 0.0216348 10003.4 0 0 0 
0.00195312 0.455078 0.00104272 1.00033 1.04272e-06 1000 1.00033 1.00138 0.00101347 0.0198133 10003.3 0 0 0 
0.00195312 0.458984 0.000982071 1.00033 9.82071e-07 1000 1.00033 1.00131 0.00100635 0.0180198 10003.3 0 0 0 
0.00195312 0.462891 0.000944859 1.00033 9.44858e-07 1000 1.00033 1.00127 0.00100105 0.0162511 10003.3 0 0 0 
0.00195312 0.466797 0.00093025 1.00032 9.30249e-07 1000 1.00032 1.00125 0.000997311 0.0144996 10003.2 0 0 0 
0.00195312 0.470703 0.000933277 1.00032 9.33277e-07 1000 1.00032 1.00125 0.00099474 0.0127666 10003.2 0 0 0 
0.00195312 0.474609 0.000947659 1.00032 9.47659e-07 1000 1.00032 1.00126 0.000992982 0.0110404 10003.2 0 0 0 
0.00195312 0.478516 0.000967513 1.00031 9.67513e-07 1000 1.00032 1.00128 0.000991833 0.00933308 10003.2 0 0 0 
0.00195312 0.482422 0.000988122 1.00031 9.88122e-07 1000 1.00031 1.0013 0.000991216 0.00761669 10003.1 0 0 0 
0.00195312 0.486328 0.00100613 1.00031 1.00613e-06 1000 1.00031 1.00132 0.000991082 0.00593144 10003.1 0 0 0 
0.00195312 0.490234 0.0010195 1.00031 1.0195e-06 1000 1.00031 1.00133 0.000991292 0.00419603 10003.1 0 0 0 
0.00195312 0.494141 0.00102747 1.0003 1.02747e-06 1000 1.0003 1.00133 0.000991622 0.00253612 10003 0 0 0 
0.00195312 0.498047 0.00103055 1.0003 1.03055e-06 1000 1.0003 1.00133 0.000991829 0.000679798 10003 0 0 0 
0.00585938 0.00195312 1000.14 7.08402e-07 0.999999 1000.14 1.14401 1000.14 -0.00245075 0.000614394 11440.1 0 0 0 
0.00585938 0.00585938 1000.14 7.36054e-07 0.999999 1000.14 1.14109 1000.14 -0.00244626 0.00233065 11410.9 0 0 0 
0.00585938 0.00976562 1000.14 7.88817e-07 0.999999 1000.14 1.13917 1000.14 -0.00243594 0.00385176 11391.7 0 0 0 
0.00585938 0.0136719 1000.14 8.60351e-07 0.999999 1000.14 1.13647 1000.14 -0.00242084 0.00543252 11364.7 0 0 0 
0.00585938 0.0175781 1000.13 9.45202e-07 0.999999 1000.13 1.1342 1000.13 -0.0024035 0.00695195 11342 0 0 0 
0.00585938 0.0214844 1000.13 1.04002e-06 0.999999 1000.13 1.13167 1000.13 -0.00238697 0.00848462 11316.7 0 0 0 
0.00585938 0.0253906 1000.13 1.14073e-06 0.999999 1000.13 1.12929 1000.13 -0.00237424 0.00999204 11292.9 0 0 0 
0.00585938 0.0292969 1000.13 1.23965e-06 0.999999 1000.13 1.12682 1000.13 -0.00236785 0.0115019 11268.2 0 0 0 
0.00585938 0.0332031 1000.12 1.3234e-06 0.999999 1000.12 1.1244 1000.12 -0.00236968 0.0130055 11244 0 0 0 
0.00585938 0.0371094 1000.12 1.37297e-06 0.999999 1000.12 1.12196 1000.12 -0.0023807 0.0145164 11219.6 0 0 0 
0.00585938 0.0410156 1000.12 1.36647e-06 0.999999 1000.12 1.11954 1000.12 -0.00240081 0.0160361 11195.4 0 0 0 
0.00585938 0.0449219 1000.12 1.28454e-06 0.999999 1000.12 1.11711 1000.12 -0.00242852 0.0175728 11171.1 0 0 0 
0.00585938 0.0488281 1000.11 1.11786e-06 0.999999 1000.11 1.11469 1000.11 -0.00246084 0.0191291 11146.9 0 0 0 
0.00585938 0.0527344 1000.11 8.75013e-07 0.999999 1000.11 1.11227 1000.11 -0.00249328 0.0207073 11122.7 0 0 0 
0.00585938 0.0566406 1000.11 5.8845e-07 0.999999 1000.11 1.10985 1000.11 -0.00252036 0.0223054 11098.5 0 0 0 
0.00585938 0.0605469 1000.11 3.15993e-07 1 1000.11 1.10743 1000.11 -0.00253658 0.0239182 11074.3 0 0 0 
0.00585938 0.0644531 1000.1 1.35435e-07 1 1000.11 1.10502 1000.1 -0.00253803 0.0255371 11050.2 0 0 0 
0.00585938 0.0683594 1000.1 1.31134e-07 1 1000.1 1.10261 1000.1 -0.00252425 0.0271524 11026.1 0 0 0 
0.00585938 0.0722656 1000.1 3.73414e-07 1 1000.1 1.10021 1000.1 -0.00250003 0.0287556 11002.1 0 0 0 
0.00585938 0.0761719 1000.1 8.94117e-07 0.999999 1000.1 1.09781 1000.1 -0.00247641 0.0303437 10978.1 0 0 0 
0.00585938 0.0800781 1000.09 1.6642e-06 0.999998 1000.1 1.09541 1000.09 -0.00247031 0.0319227 10954.1 0 0 0 
0.00585938 0.0839844 1000.09 2.5809e-06 0.999998 1000.09 1.09301 1000.09 -0.00250221 0.0335113 10930.1 0 0 0 
0.00585938 0.0878906 1000.09 3.47214e-06 0.999997 1000.09 1.09062 1000.09 -0.00259167 0.0351412 10906.2 0 0 0 
0.00585938 0.0917969 1000.08 4.12332e-06 0.999996 1000.09 1.08822 1000.08 -0.00275107 0.0368548 10882.2 0 0 0 
0.00585938 0.0957031 1000.08 4.32725e-06 0.999996 1000.09 1.08583 1000.08 -0.00297928 0.0386976 10858.3 0 0 0 
0.00585938 0.0996094 1000.08 3.9511e-06 0.999996 1000.08 1.08345 1000.08 -0.0032576 0.0407091 10834.5 0 0 0 
0.00585938 0.103516 1000.08 3.00752e-06 0.999997 1000.08 1.08106 1000.08 -0.00354982 0.0429085 10810.6 0 0 0 
0.00585938 0.107422 1000.08 1.71187e-06 0.999998 1000.08 1.07873 1000.08 -0.00380661 0.045286 10787.3 0 0 0 
0.00585938 0.111328 1000.08 5.06442e-07 1 1000.08 1.07667 1000.08 -0.00397755 0.0477772 10766.7 0 0 0 
0.00585938 0.115234 1000.08 3.94967e-08 1 1000.08 1.07622 1000.08 -0.0040349 0.0502694 10762.2 1 0 0 
0.00585938 0.119141 1000.07 1.10077e-06 0.999999 1000.07 1.07112 1000.07 -0.00400768 0.0530192 10711.2 0 0 0 
0.00585938 0.123047 1000.06 4.83169e-06 0.999995 1000.07 1.06921 1000.06 -0.00392483 0.0555977 10692.1 0 0 0 
0.00585938 0.126953 1000.06 1.15982e-05 0.999989 1000.07 1.06673 1000.06 -0.00381548 0.0581287 10667.3 0 0 0 
0.00585938 0.130859 1000.04 2.09709e-05 0.99998 1000.06 1.06445 1000.04 -0.00370627 0.0605649 10644.5 0 0 0 
0.00585938 0.134766 1000.03 3.18153e-05 0.99997 1000.06 1.06205 1000.03 -0.00361926 0.0629489 10620.5 0 0 0 
0.00585938 0.138672 1000.02 4.25104e-05 0.99996 1000.06 1.05972 1000.02 -0.00357001 0.0652816 10597.2 0 0 0 
0.00585938 0.142578 1000.01 5.131e-05 0.999951 1000.06 1.05735 1000.01 -0.0035668 0.0676012 10573.5 0 0 0 
0.00585938 0.146484 1000 5.67901e-05 0.999946 1000.06 1.05501 1000 -0.00361041 0.069932 10550.1 0 0 0 
0.00585938 0.150391 999.997 5.83293e-05 0.999945 1000.05 1.05267 999.997 -0.00369516 0.0723066 10526.7 0 0 0 
0.00585938 0.154297 999.996 5.65427e-05 0.999946 1000.05 1.05033 999.997 -0.00381069 0.0747465 10503.3 0 0 0 
0.00585938 0.158203 999.997 5.36328e-05 0.999949 1000.05 1.04799 999.997 -0.00394438 0.0772692 10479.9 0 0 0 
0.00585938 0.162109 999.994 5.36712e-05 0.999949 1000.05 1.04565 999.994 -0.00408339 0.0798815 10456.5 0 0 0 
0.00585938 0.166016 999.983 6.29265e-05 0.99994 1000.04 1.04332 999.983 -0.00421642 0.0825833 10433.2 0 0 0 
0.00585938 0.169922 999.954 9.04812e-05 0.999913 1000.04 1.04099 999.954 -0.00433491 0.0853672 10409.9 0 0 0 
0.00585938 0.173828 999.895 0.00014952 0.999856 1000.04 1.03866 999.895 -0.00443395 0.0882213 10386.6 0 0 0 
0.00585938 0.177734 999.786 0.000259818 0.999749 1000.04 1.03634 999.786 -0.00451266 0.0911309 10363.4 0 0 0 
0.00585938 0.181641 999.597 0.000452055 0.999563 1000.03 1.03402 999.597 -0.00457428 0.0940817 10340.2 0 0 0 
0.00585938 0.185547 999.281 0.000774584 0.999249 1000.03 1.0317 999.282 -0.00462559 0.0970607 10317 0 0 0 
0.00585938 0.189453 998.763 0.00130305 0.998734 1000.03 1.02939 998.765 -0.0046759 0.100058 10293.9 0 0 0 
0.00585938 0.193359 997.932 0.00215182 0.997905 1000.03 1.02708 997.934 -0.00473548 0.103066 10270.8 0 0 0 
0.00585938 0.197266 996.628 0.00348061 0.996604 1000.02 1.02478 996.632 -0.00481393 0.106078 10247.8 0 0 0 
0.00585938 0.201172 994.663 0.00547951 0.994641 1000.02 1.02249 994.669 -0.00491845 0.109087 10224.9 0 0 0 
0.00585938 0.205078 991.859 0.0083257 0.991839 1000.02 1.02022 991.868 -0.00505253 0.112079 10202.2 0 0 0 
0.00585938 0.208984 988.082 0.0121498 0.988065 1000.02 1.01797 988.095 -0.00521471 0.115041 10179.7 0 0 0 
0.00585938 0.212891 983.214 0.0170663 0.983199 1000.02 1.01578 983.231 -0.00539749 0.117951 10157.8 0 0 0 
0.00585938 0.216797 977.025 0.0233021 0.977012 1000.01 1.01365 977.048 -0.00558603 0.12078 10136.5 0 0 0 
0.00585938 0.220703 968.913 0.0314597 0.968901 1000.01 1.01161 968.944 -0.00576079 0.123478 10116.1 0 0 0 
0.00585938 0.224609 957.461 0.0429617 0.957451 1000.01 1.00971 957.504 -0.00590771 0.125968 10097.1 0 0 0 
0.00585938 0.228516 939.652 0.0608379 0.939645 1000.01 1.008 939.713 -0.00602636 0.1281 10080 0 0 0 
0.00585938 0.232422 909.403 0.0911968 0.909397 1000.01 1.00656 909.495 -0.00612363 0.12962 10065.6 0 0 0 
0.00585938 0.236328 857.361 0.14342 0.857357 1000.01 1.00545 857.505 -0.00621323 0.130024 10054.5 0 0 0 
0.00585938 0.240234 777.421 0.223656 0.777417 1000 1.00482 777.645 -0.00631647 0.128697 10048.2 0 0 0 
0.00585938 0.244141 672.389 0.329095 0.672386 1000 1.00452 672.718 -0.00646398 0.125188 10045.2 0 0 0 
0.00585938 0.248047 551.156 0.450813 0.551154 1000 1.00438 551.607 -0.00666821 0.119697 10043.8 0 0 0 
0.00585938 0.251953 425.125 0.577284 0.425123 1000 1.00419 425.703 -0.00692946 0.112392 10041.9 0 0 0 
0.00585938 0.255859 306.369 0.696274 0.306368 1000 1.00381 307.065 -0.00724029 0.104836 10038.1 0 0 0 
0.00585938 0.259766 206.043 0.796556 0.206042 1000 1.00327 206.84 -0.00759262 0.0979912 10032.7 0 0 0 
0.00585938 0.263672 132.075 0.870284 0.132075 1000 1.00272 132.945 -0.00797107 0.092833 10027.2 0 0 0 
0.00585938 0.267578 85.3555 0.916698 0.0853553 1000 1.00224 86.2722 -0.00834607 0.0895799 10022.4 0 0 0 
0.00585938 0.271484 58.3658 0.943393 0.0583657 1000 1.00187 59.3092 -0.00868168 0.0880677 10018.7 0 0 0 
0.00585938 0.275391 42.2109 0.95929 0.0422108 1000 1.00157 43.1702 -0.00894989 0.0880856 10015.7 0 0 0 
0.00585938 0.279297 31.5977 0.969684 0.0315976 1000 1.00132 32.5674 -0.00913124 0.0893759 10013.2 0 0 0 
0.00585938 0.283203 23.9116 0.977187 0.0239116 1000 1.00113 24.8888 -0.00920156 0.0916875 10011.3 0 0 0 
0.00585938 0.287109 17.9224 0.983028 0.0179224 1000 1.00097 18.9054 -0.00912042 0.094769 10009.7 0 0 0 
0.00585938 0.291016 13.1093 0.987723 0.0131093 1000 1.00084 14.097 -0.00882201 0.0983497 10008.4 0 0 0 
0.00585938 0.294922 9.27461 0.991467 0.0092746 1000 1.00075 10.2661 -0.00822443 0.102124 10007.5 0 0 0 
0.00585938 0.298828 6.32182 0.994352 0.00632182 1000 1.00068 7.31618 -0.00726916 0.105753 10006.8 0 0 0 
0.00585938 0.302734 4.15227 0.996473 0.00415227 1000 1.00063 5.14875 -0.00596751 0.108899 10006.3 0 0 0 
0.00585938 0.306641 2.63468 0.997955 0.00263468 1000 1.00059 3.63264 -0.004403 0.111279 10005.9 0 0 0 
0.00585938 0.310547 1.61781 0.998947 0.00161781 1000 1.00057 2.61676 -0.00269893 0.112701 10005.7 0 0 0 
0.00585938 0.314453 0.959887 0.999586 0.000959886 1000 1.00055 1.95947 -0.000981559 0.113074 10005.5 0 0 0 
0.00585938 0.318359 0.548238 0.999984 0.000548237 1000 1.00053 1.54822 0.00062614 0.112417 10005.3 0 0 0 
0.00585938 0.322266 0.301483 1.00022 0.000301483 1000 1.00052 1.3017 0.00199485 0.110833 10005.2 0 0 0 
0.00585938 0.326172 0.163003 1.00035 0.000163002 1000 1.00051 1.16335 0.00304678 0.108492 10005.1 0 0 0 
0.00585938 0.330078 0.0934829 1.00041 9.34829e-05 1000 1.0005 1.09389 0.00377947 0.105598 10005 0 0 0 
0.00585938 0.333984 0.0652857 1.00043 6.52857e-05 1000 1.00049 1.06571 0.00424617 0.102344 10004.9 0 0 0 
0.00585938 0.337891 0.0588719 1.00043 5.88719e-05 1000 1.00049 1.0593 0.0045175 0.0988793 10004.9 0 0 0 
0.00585938 0.341797 0.0607774 1.00042 6.07774e-05 1000 1.00048 1.06119 0.00464594 0.0953137 10004.8 0 0 0 
0.00585938 0.345703 0.0625003 1.00041 6.25002e-05 1000 1.00047 1.06291 0.00465655 0.0917304 10004.7 0 0 0 
0.00585938 0.349609 0.0597361 1.0004 5.9736e-05 1000 1.00046 1.06014 0.00456238 0.0882079 10004.6 0 0 0 
0.00585938 0.353516 0.0515737 1.0004 5.15737e-05 1000 1.00046 1.05198 0.00439091 0.0847999 10004.6 0 0 0 
0.00585938 0.357422 0.0394801 1.00041 3.948e-05 1000 1.00045 1.03989 0.00420005 0.0815518 10004.5 0 0 0 
0.00585938 0.361328 0.0261198 1.00042 2.61198e-05 1000 1.00044 1.02654 0.00406679 0.0784259 10004.4 0 0 0 
0.00585938 0.365234 0.0142116 1.00042 1.42116e-05 1000 1.00044 1.01463 0.00404705 0.0754083 10004.4 0 0 0 
0.00585938 0.369141 0.00566464 1.00042 5.66463e-06 1000 1.00043 1.00609 0.00412599 0.0723408 10004.3 0 0 0 
0.00585938 0.373047 0.00114341 1.00042 1.14341e-06 1000 1.00043 1.00157 0.0042225 0.0692977 10004.3 0 0 0 
0.00585938 0.376953 2.16932e-05 1.00041 2.16932e-08 1000 1.00041 1.00044 0.00426517 0.0659322 10004.1 1 0 0 
0.00585938 0.380859 0.000548286 1.00041 5.48286e-07 1000 1.00041 1.00096 0.00428172 0.0631205 10004.1 0 0 0 
0.00585938 0.384766 0.00181681 1.00041 1.81681e-06 1000 1.00041 1.00222 0.00427971 0.0601786 10004.1 0 0 0 
0.00585938 0.388672 0.00301869 1.0004 3.01869e-06 1000 1.0004 1.00342 0.00424087 0.0572058 10004 0 0 0 
0.00585938 0.392578 0.00363476 1.00039 3.63476e-06 1000 1.0004 1.00403 0.00415387 0.0542964 10004 0 0 0 
0.00585938 0.396484 0.00352152 1.00039 3.52152e-06 1000 1.00039 1.00391 0.00401546 0.0514866 10003.9 0 0 0 
0.00585938 0.400391 0.00284989 1.00039 2.84989e-06 1000 1.00039 1.00324 0.00383594 0.0488104 10003.9 0 0 0 
0.00585938 0.404297 0.00194217 1.00038 1.94217e-06 1000 1.00038 1.00232 0.00364063 0.0462834 10003.8 0 0 0 
0.00585938 0.408203 0.00110346 1.00038 1.10346e-06 1000 1.00038 1.00148 0.00346225 0.0439053 10003.8 0 0 0 
0.00585938 0.412109 0.000521946 1.00037 5.21946e-07 1000 1.00038 1.0009 0.00332823 0.0416547 10003.8 0 0 0 
0.00585938 0.416016 0.000252879 1.00037 2.52879e-07 1000 1.00037 1.00062 0.00324976 0.0394978 10003.7 0 0 0 
0.00585938 0.419922 0.000254628 1.00037 2.54628e-07 1000 1.00037 1.00062 0.00321861 0.0373992 10003.7 0 0 0 
0.00585938 0.423828 0.000436796 1.00036 4.36796e-07 1000 1.00036 1.0008 0.00321409 0.035333 10003.6 0 0 0 
0.00585938 0.427734 0.000698308 1.00036 6.98308e-07 1000 1.00036 1.00106 0.00321479 0.0332877 10003.6 0 0 0 
0.00585938 0.431641 0.00095203 1.00035 9.5203e-07 1000 1.00035 1.00131 0.00320732 0.0312635 10003.5 0 0 0 
0.00585938 0.435547 0.00113923 1.00035 1.13923e-06 1000 1.00035 1.00149 0.00318804 0.0292665 10003.5 0 0 0 
0.00585938 0.439453 0.00123522 1.00035 1.23522e-06 1000 1.00035 1.00158 0.00315967 0.0273028 10003.5 0 0 0 
0.00585938 0.443359 0.0012459 1.00034 1.2459e-06 1000 1.00034 1.00159 0.0031268 0.0253758 10003.4 0 0 0 
0.00585938 0.447266 0.00119691 1.00034 1.1969e-06 1000 1.00034 1.00154 0.00309339 0.023486 10003.4 0 0 0 
0.00585938 0.451172 0.00112012 1.00034 1.12012e-06 1000 1.00034 1.00146 0.00306229 0.0216315 10003.4 0 0 0 
0.00585938 0.455078 0.0010428 1.00033 1.0428e-06 1000 1.00033 1.00138 0.0030354 0.01981 10003.3 0 0 0 
0.00585938 0.458984 0.000982113 1.00033 9.82112e-07 1000 1.00033 1.00131 0.00301381 0.0180163 10003.3 0 0 0 
0.00585938 0.462891 0.000944862 1.00033 9.44861e-07 1000 1.00033 1.00127 0.00299764 0.0162475 10003.3 0 0 0 
0.00585938 0.466797 0.00093023 1.00032 9.30229e-07 1000 1.00032 1.00125 0.00298617 0.0144962 10003.2 0 0 0 
0.00585938 0.470703 0.000933249 1.00032 9.33249e-07 1000 1.00032 1.00125 0.00297823 0.0127633 10003.2 0 0 0 
0.00585938 0.474609 0.000947634 1.00032 9.47634e-07 1000 1.00032 1.00126 0.00297279 0.0110376 10003.2 0 0 0 
0.00585938 0.478516 0.000967497 1.00031 9.67496e-07 1000 1.00032 1.00128 0.00296922 0.00933071 10003.2 0 0 0 
0.00585938 0.482422 0.000988115 1.00031 9.88115e-07 1000 1.00031 1.0013 0.00296728 0.00761483 10003.1 0 0 0 
0.00585938 0.486328 0.00100613 1.00031 1.00613e-06 1000 1.00031 1.00131 0.00296682 0.00593006 10003.1 0 0 0 
0.00585938 0.490234 0.0010195 1.00031 1.0195e-06 1000 1.00031 1.00133 0.0029674 0.0041951 10003.1 0 0 0 
0.00585938 0.494141 0.00102748 1.0003 1.02748e-06 1000 1.0003 1.00133 0.00296838 0.00253558 10003 0 0 0 
0.00585938 0.498047 0.00103056 1.0003 1.03056e-06 1000 1.0003 1.00133 0.002969 0.00067963 10003 0 0 0 
0.00976562 0.00195312 1000.14 7.09743e-07 0.999999 1000.14 1.14402 1000.14 -0.00407837 0.000611207 11440.2 0 0 0 
0.00976562 0.00585938 1000.14 7.37467e-07 0.999999 1000.14 1.1411 1000.14 -0.00407124 0.00232136 11411 0 0 0 
0.00976562 0.00976562 1000.14 7.90373e-07 0.999999 1000.14 1.13918 1000.14 -0.00405484 0.00383705 11391.8 0 0 0 
0.00976562 0.0136719 1000.14 8.62098e-07 0.999999 1000.14 1.13648 1000.14 -0.00403084 0.00541365 11364.8 0 0 0 
0.00976562 0.0175781 1000.13 9.47162e-07 0.999999 1000.13 1.13421 1000.13 -0.0040033 0.00693051 11342.1 0 0 0 
0.00976562 0.0214844 1000.13 1.04219e-06 0.999999 1000.13 1.13168 1000.13 -0.00397706 0.00846231 11316.8 0 0 0 
0.00976562 0.0253906 1000.13 1.14309e-06 0.999999 1000.13 1.12929 1000.13 -0.00395691 0.00997034 11292.9 0 0 0 
0.00976562 0.0292969 1000.13 1.24218e-06 0.999999 1000.13 1.12683 1000.13 -0.00394696 0.011482 11268.3 0 0 0 
0.00976562 0.0332031 1000.12 1.32603e-06 0.999999 1000.12 1.12441 1000.12 -0.00395027 0.0129878 11244.1 0 0 0 
0.00976562 0.0371094 1000.12 1.37563e-06 0.999999 1000.12 1.12197 1000.12 -0.00396849 0.0145011 11219.7 0 0 0 
0.00976562 0.0410156 1000.12 1.36906e-06 0.999999 1000.12 1.11955 1000.12 -0.00400145 0.0160227 11195.5 0 0 0 
0.00976562 0.0449219 1000.12 1.28696e-06 0.999999 1000.12 1.11712 1000.12 -0.00404674 0.0175605 11171.2 0 0 0 
0.00976562 0.0488281 1000.11 1.11998e-06 0.999999 1000.11 1.1147 1000.11 -0.00409944 0.0191164 11147 0 0 0 
0.00976562 0.0527344 1000.11 8.76714e-07 0.999999 1000.11 1.11227 1000.11 -0.00415222 0.0206929 11122.7 0 0 0 
0.00976562 0.0566406 1000.11 5.89667e-07 0.999999 1000.11 1.10986 1000.11 -0.00419613 0.0222876 11098.6 0 0 0 
0.00976562 0.0605469 1000.11 3.16749e-07 1 1000.11 1.10744 1000.11 -0.00422229 0.0238958 11074.4 0 0 0 
0.00976562 0.0644531 1000.1 1.35885e-07 1 1000.11 1.10503 1000.1 -0.00422448 0.0255094 11050.3 0 0 0 
0.00976562 0.0683594 1000.1 1.31587e-07 1 1000.1 1.10262 1000.1 -0.00420224 0.0271196 11026.2 0 0 0 
0.00976562 0.0722656 1000.1 3.74328e-07 1 1000.1 1.10022 1000.1 -0.00416375 0.0287192 11002.2 0 0 0 
0.00976562 0.0761719 1000.1 8.96048e-07 0.999999 1000.1 1.09781 1000.1 -0.00412734 0.0303065 10978.1 0 0 0 
0.00976562 0.0800781 1000.09 1.6677e-06 0.999998 1000.1 1.09541 1000.09 -0.00412078 0.0318888 10954.1 0 0 0 