TITLE=FvSolution
VARIABLES=X Y RHO1Z1 RHO2Z2 Z1 RHO1 RHO2 RHO U V PRE theta lambdaX lambdaY 
ZONE T=TA, I=128, J=128, DATAPACKING = POINT
0.00195312 0.00195312 1000.2 8.55536e-07 0.999999 1000.2 1.20267 1000.2 0.000730414 -0.000861157 12026.7 0 0 0 
0.00195312 0.00585938 1000.2 8.89027e-07 0.999999 1000.2 1.19953 1000.2 0.000730597 -0.00209894 11995.3 0 0 0 
0.00195312 0.00976562 1000.2 9.4476e-07 0.999999 1000.2 1.19777 1000.2 0.000731192 -0.00351368 11977.7 0 0 0 
0.00195312 0.0136719 1000.19 1.00442e-06 0.999999 1000.2 1.19506 1000.19 0.000732366 -0.00485664 11950.6 0 0 0 
0.00195312 0.0175781 1000.19 1.05257e-06 0.999999 1000.19 1.19276 1000.19 0.00073418 -0.0062629 11927.6 0 0 0 
0.00195312 0.0214844 1000.19 1.08146e-06 0.999999 1000.19 1.19015 1000.19 0.000736589 -0.00764792 11901.5 0 0 0 
0.00195312 0.0253906 1000.19 1.08998e-06 0.999999 1000.19 1.18767 1000.19 0.000739484 -0.00905619 11876.7 0 0 0 
0.00195312 0.0292969 1000.18 1.0817e-06 0.999999 1000.19 1.18509 1000.18 0.000742729 -0.0104614 11850.9 0 0 0 
0.00195312 0.0332031 1000.18 1.06239e-06 0.999999 1000.18 1.18254 1000.18 0.000746216 -0.0118791 11825.4 0 0 0 
0.00195312 0.0371094 1000.18 1.03816e-06 0.999999 1000.18 1.17995 1000.18 0.000749887 -0.0133007 11799.5 0 0 0 
0.00195312 0.0410156 1000.18 1.01445e-06 0.999999 1000.18 1.17737 1000.18 0.000753742 -0.0147317 11773.7 0 0 0 
0.00195312 0.0449219 1000.17 9.95595e-07 0.999999 1000.17 1.17476 1000.17 0.00075783 -0.0161695 11747.6 0 0 0 
0.00195312 0.0488281 1000.17 9.8474e-07 0.999999 1000.17 1.17215 1000.17 0.000762231 -0.0176164 11721.5 0 0 0 
0.00195312 0.0527344 1000.17 9.83556e-07 0.999999 1000.17 1.16951 1000.17 0.000767033 -0.0190722 11695.1 0 0 0 
0.00195312 0.0566406 1000.17 9.91757e-07 0.999999 1000.17 1.16687 1000.17 0.000772311 -0.0205384 11668.7 0 0 0 
0.00195312 0.0605469 1000.16 1.00655e-06 0.999999 1000.16 1.16422 1000.16 0.000778095 -0.0220155 11642.2 0 0 0 
0.00195312 0.0644531 1000.16 1.02252e-06 0.999999 1000.16 1.16155 1000.16 0.000784346 -0.0235049 11615.5 0 0 0 
0.00195312 0.0683594 1000.16 1.03257e-06 0.999999 1000.16 1.15887 1000.16 0.000790945 -0.0250071 11588.7 0 0 0 
0.00195312 0.0722656 1000.16 1.02998e-06 0.999999 1000.16 1.15618 1000.16 0.00079775 -0.0265229 11561.8 0 0 0 
0.00195312 0.0761719 1000.15 1.01135e-06 0.999999 1000.15 1.15348 1000.15 0.000804702 -0.0280524 11534.8 0 0 0 
0.00195312 0.0800781 1000.15 9.79506e-07 0.999999 1000.15 1.15076 1000.15 0.000811934 -0.0295962 11507.6 0 0 0 
0.00195312 0.0839844 1000.15 9.45093e-07 0.999999 1000.15 1.14804 1000.15 0.000819779 -0.0311551 11480.4 0 0 0 
0.00195312 0.0878906 1000.14 9.2537e-07 0.999999 1000.15 1.14531 1000.14 0.000828611 -0.0327308 11453.1 0 0 0 
0.00195312 0.0917969 1000.14 9.39273e-07 0.999999 1000.14 1.14256 1000.14 0.000838577 -0.0343253 11425.6 0 0 0 
0.00195312 0.0957031 1000.14 9.98649e-07 0.999999 1000.14 1.1398 1000.14 0.0008494 -0.0359409 11398 0 0 0 
0.00195312 0.0996094 1000.14 1.09773e-06 0.999999 1000.14 1.13704 1000.14 0.000860466 -0.0375786 11370.4 0 0 0 
0.00195312 0.103516 1000.13 1.20562e-06 0.999999 1000.13 1.13427 1000.13 0.000871185 -0.0392384 11342.7 0 0 0 
0.00195312 0.107422 1000.13 1.26842e-06 0.999999 1000.13 1.13148 1000.13 0.000881366 -0.0409192 11314.8 0 0 0 
0.00195312 0.111328 1000.13 1.22618e-06 0.999999 1000.13 1.12869 1000.13 0.000891244 -0.0426203 11286.9 0 0 0 
0.00195312 0.115234 1000.12 1.04352e-06 0.999999 1000.13 1.12589 1000.12 0.000901133 -0.0443413 11258.9 0 0 0 
0.00195312 0.119141 1000.12 7.42779e-07 0.999999 1000.12 1.12308 1000.12 0.000911123 -0.0460826 11230.8 0 0 0 
0.00195312 0.123047 1000.12 4.21024e-07 1 1000.12 1.12026 1000.12 0.000921434 -0.0478441 11202.6 0 0 0 
0.00195312 0.126953 1000.12 2.33477e-07 1 1000.12 1.11743 1000.12 0.000933477 -0.0496284 11174.3 0 0 0 
0.00195312 0.130859 1000.11 3.39722e-07 1 1000.11 1.1146 1000.11 0.000950607 -0.0514409 11146 0 0 0 
0.00195312 0.134766 1000.11 8.29635e-07 0.999999 1000.11 1.11175 1000.11 0.00097705 -0.0532977 11117.5 0 0 0 
0.00195312 0.138672 1000.11 1.66126e-06 0.999999 1000.11 1.10892 1000.11 0.00101432 -0.0552166 11089.2 0 0 0 
0.00195312 0.142578 1000.1 2.64119e-06 0.999998 1000.11 1.10605 1000.1 0.00105689 -0.0572204 11060.5 0 0 0 
0.00195312 0.146484 1000.1 3.46028e-06 0.999997 1000.1 1.10323 1000.1 0.00109046 -0.0592975 11032.3 0 0 0 
0.00195312 0.150391 1000.1 3.77656e-06 0.999997 1000.1 1.10031 1000.1 0.00109637 -0.0614279 11003.1 0 0 0 
0.00195312 0.154297 1000.09 3.33477e-06 0.999997 1000.1 1.09756 1000.09 0.00106191 -0.0635146 10975.6 0 0 0 
0.00195312 0.158203 1000.09 2.12967e-06 0.999998 1000.09 1.09452 1000.09 0.00099281 -0.0655305 10945.2 0 0 0 
0.00195312 0.162109 1000.09 6.39364e-07 0.999999 1000.09 1.09215 1000.09 0.000917306 -0.0673653 10921.5 0 0 0 
0.00195312 0.166016 1000.09 1.57693e-07 1 1000.09 1.08675 1000.09 0.000880641 -0.0692203 10867.5 1 0 0 
0.00195312 0.169922 1000.08 3.1952e-06 0.999997 1000.09 1.08562 1000.08 0.000911741 -0.0708369 10856.2 0 0 0 
0.00195312 0.173828 1000.07 1.30349e-05 0.999988 1000.08 1.08301 1000.07 0.000983935 -0.0726296 10830.1 0 0 0 
0.00195312 0.177734 1000.05 2.8858e-05 0.999973 1000.08 1.08015 1000.05 0.0010553 -0.0746038 10801.5 0 0 0 
0.00195312 0.181641 1000.03 4.66057e-05 0.999957 1000.08 1.07721 1000.03 0.00110359 -0.0767012 10772.1 0 0 0 
0.00195312 0.185547 1000.02 6.04547e-05 0.999944 1000.07 1.07429 1000.02 0.00113104 -0.0788737 10742.9 0 0 0 
0.00195312 0.189453 1000.01 6.51323e-05 0.999939 1000.07 1.07135 1000.01 0.00115333 -0.0810922 10713.5 0 0 0 
0.00195312 0.193359 1000.01 5.90165e-05 0.999945 1000.07 1.06842 1000.01 0.00118383 -0.0833632 10684.2 0 0 0 
0.00195312 0.197266 1000.02 4.76172e-05 0.999955 1000.07 1.06548 1000.02 0.001225 -0.0857069 10654.8 0 0 0 
0.00195312 0.201172 1000.02 4.68421e-05 0.999956 1000.06 1.06253 1000.02 0.00126954 -0.0881387 10625.3 0 0 0 
0.00195312 0.205078 999.979 8.57061e-05 0.999919 1000.06 1.05959 999.979 0.00130761 -0.0906541 10595.9 0 0 0 
0.00195312 0.208984 999.859 0.000208966 0.999802 1000.06 1.05665 999.859 0.00133344 -0.0932311 10566.5 0 0 0 
0.00195312 0.212891 999.597 0.000481436 0.999543 1000.05 1.0537 999.597 0.00134775 -0.0958405 10537 0 0 0 
0.00195312 0.216797 999.101 0.000997461 0.999051 1000.05 1.05075 999.102 0.00135597 -0.0984569 10507.5 0 0 0 
0.00195312 0.220703 998.233 0.00190172 0.998185 1000.05 1.04778 998.235 0.00136454 -0.101063 10477.8 0 0 0 
0.00195312 0.224609 996.759 0.00343258 0.996715 1000.04 1.0448 996.763 0.00137776 -0.103646 10448 0 0 0 
0.00195312 0.228516 994.274 0.00600849 0.994232 1000.04 1.04178 994.28 0.0013965 -0.106186 10417.8 0 0 0 
0.00195312 0.232422 990.028 0.0103978 0.98999 1000.04 1.03871 990.038 0.00141841 -0.108642 10387.1 0 0 0 
0.00195312 0.236328 982.597 0.0180577 0.982562 1000.04 1.03554 982.615 0.00143822 -0.110935 10355.4 0 0 0 
0.00195312 0.240234 969.186 0.0318397 0.969155 1000.03 1.03224 969.218 0.0014479 -0.112906 10322.4 0 0 0 
0.00195312 0.244141 944.071 0.0575641 0.944044 1000.03 1.02873 944.128 0.00143836 -0.11429 10287.3 0 0 0 
0.00195312 0.248047 894.449 0.10821 0.894427 1000.02 1.02498 894.557 0.00140312 -0.114576 10249.8 0 0 0 
0.00195312 0.251953 799.434 0.204735 0.799418 1000.02 1.0207 799.639 0.00134235 -0.112897 10207 0 0 0 
0.00195312 0.255859 653.81 0.351732 0.653799 1000.02 1.01598 654.161 0.00126636 -0.108571 10159.8 0 0 0 
0.00195312 0.259766 479.713 0.526117 0.479707 1000.01 1.01119 480.239 0.00118662 -0.101846 10111.9 0 0 0 
0.00195312 0.263672 309.61 0.695311 0.309608 1000.01 1.00712 310.305 0.00111648 -0.093642 10071.2 0 0 0 
0.00195312 0.267578 174.707 0.828841 0.174706 1000 1.0043 175.536 0.00107484 -0.0852836 10043 0 0 0 
0.00195312 0.271484 91.9051 0.910498 0.0919048 1000 1.00265 92.8156 0.00107365 -0.0778973 10026.5 0 0 0 
0.00195312 0.275391 49.6386 0.952007 0.0496385 1000 1.00173 50.5906 0.00110882 -0.0718037 10017.3 0 0 0 
0.00195312 0.279297 27.8439 0.973335 0.0278439 1000 1.00121 28.8173 0.00116948 -0.0669241 10012.1 0 0 0 
0.00195312 0.283203 16.0155 0.98488 0.0160155 1000 1.00091 17.0004 0.00123645 -0.0630307 10009.1 0 0 0 
0.00195312 0.287109 9.35471 0.991368 0.0093547 1000 1.00073 10.3461 0.00129009 -0.059866 10007.3 0 0 0 
0.00195312 0.291016 5.48751 0.995127 0.0054875 1000 1.00062 6.48263 0.00132957 -0.0572241 10006.2 0 0 0 
0.00195312 0.294922 3.18827 0.997358 0.00318827 1000 1.00055 4.18563 0.00138305 -0.0549719 10005.5 0 0 0 
0.00195312 0.298828 1.80345 0.998699 0.00180345 1000 1.0005 2.80215 0.00149152 -0.0530899 10005 0 0 0 
0.00195312 0.302734 0.973043 0.9995 0.000973043 1000 1.00047 1.97254 0.00166931 -0.0516498 10004.7 0 0 0 
0.00195312 0.306641 0.489853 0.999962 0.000489853 1000 1.00045 1.48981 0.00187947 -0.0507212 10004.5 0 0 0 
0.00195312 0.310547 0.227164 1.00021 0.000227164 1000 1.00044 1.22737 0.00205108 -0.0502704 10004.4 0 0 0 
0.00195312 0.314453 0.101985 1.00032 0.000101985 1000 1.00042 1.1023 0.00211629 -0.0501423 10004.2 0 0 0 
0.00195312 0.318359 0.0570593 1.00035 5.70593e-05 1000 1.00041 1.05741 0.00204608 -0.0500793 10004.1 0 0 0 
0.00195312 0.322266 0.0524255 1.00034 5.24255e-05 1000 1.0004 1.05277 0.00186455 -0.0498213 10004 0 0 0 
0.00195312 0.326172 0.0614509 1.00032 6.14508e-05 1000 1.00039 1.06177 0.00162419 -0.0492006 10003.9 0 0 0 
0.00195312 0.330078 0.0685138 1.00031 6.85138e-05 1000 1.00037 1.06882 0.00137356 -0.0481538 10003.7 0 0 0 
0.00195312 0.333984 0.0668816 1.0003 6.68816e-05 1000 1.00036 1.06718 0.00114535 -0.0466874 10003.6 0 0 0 
0.00195312 0.337891 0.0562645 1.0003 5.62645e-05 1000 1.00035 1.05656 0.000955275 -0.0448761 10003.5 0 0 0 
0.00195312 0.341797 0.0401557 1.0003 4.01556e-05 1000 1.00034 1.04046 0.000805481 -0.0427772 10003.4 0 0 0 
0.00195312 0.345703 0.0233415 1.00031 2.33415e-05 1000 1.00033 1.02365 0.000689413 -0.0405007 10003.3 0 0 0 
0.00195312 0.349609 0.00995446 1.00031 9.95446e-06 1000 1.00032 1.01027 0.000599512 -0.0380539 10003.2 0 0 0 
0.00195312 0.353516 0.00225237 1.00031 2.25237e-06 1000 1.00032 1.00257 0.000536353 -0.0356355 10003.2 0 0 0 
0.00195312 0.357422 8.12019e-05 1.00031 8.12019e-08 1000 1.00031 1.00039 0.000509501 -0.0331973 10003.1 1 0 0 
0.00195312 0.361328 0.000802745 1.0003 8.02745e-07 1000 1.0003 1.0011 0.000515448 -0.0304125 10003 0 0 0 
0.00195312 0.365234 0.00261311 1.00029 2.61311e-06 1000 1.00029 1.0029 0.000554313 -0.0280638 10002.9 0 0 0 
0.00195312 0.369141 0.00423752 1.00028 4.23752e-06 1000 1.00028 1.00452 0.000624974 -0.025721 10002.8 0 0 0 
0.00195312 0.373047 0.00499818 1.00027 4.99818e-06 1000 1.00028 1.00527 0.000719309 -0.0237137 10002.8 0 0 0 
0.00195312 0.376953 0.00476348 1.00026 4.76348e-06 1000 1.00027 1.00503 0.000820132 -0.0218986 10002.7 0 0 0 
0.00195312 0.380859 0.00378594 1.00026 3.78594e-06 1000 1.00026 1.00404 0.000907001 -0.020364 10002.6 0 0 0 
0.00195312 0.384766 0.0024898 1.00025 2.4898e-06 1000 1.00025 1.00274 0.000965284 -0.0190066 10002.5 0 0 0 
0.00195312 0.388672 0.00128259 1.00025 1.28259e-06 1000 1.00025 1.00153 0.000991596 -0.0177968 10002.5 0 0 0 
0.00195312 0.392578 0.00043761 1.00024 4.3761e-07 1000 1.00024 1.00068 0.000992975 -0.0166594 10002.4 0 0 0 
0.00195312 0.396484 5.21055e-05 1.00024 5.21055e-08 1000 1.00024 1.00029 0.000981169 -0.015564 10002.4 1 0 0 
0.00195312 0.400391 5.78171e-05 1.00023 5.7817e-08 1000 1.00023 1.00029 0.000965656 -0.0144759 10002.3 0 0 0 
0.00195312 0.404297 0.000312396 1.00022 3.12396e-07 1000 1.00022 1.00054 0.00095306 -0.0134233 10002.2 0 0 0 
0.00195312 0.408203 0.000664637 1.00022 6.64637e-07 1000 1.00022 1.00088 0.000947068 -0.0123899 10002.2 0 0 0 
0.00195312 0.412109 0.000989188 1.00021 9.89188e-07 1000 1.00021 1.0012 0.000948003 -0.0114046 10002.1 0 0 0 
0.00195312 0.416016 0.00120838 1.00021 1.20838e-06 1000 1.00021 1.00141 0.000953899 -0.0104698 10002.1 0 0 0 
0.00195312 0.419922 0.00129748 1.0002 1.29748e-06 1000 1.0002 1.0015 0.000961806 -0.00959722 10002 0 0 0 
0.00195312 0.423828 0.00127499 1.0002 1.27499e-06 1000 1.0002 1.00147 0.000968931 -0.00878377 10002 0 0 0 
0.00195312 0.427734 0.00118416 1.00019 1.18416e-06 1000 1.00019 1.00137 0.000973485 -0.00802653 10001.9 0 0 0 
0.00195312 0.431641 0.00107318 1.00019 1.07318e-06 1000 1.00019 1.00126 0.000975097 -0.00731727 10001.9 0 0 0 
0.00195312 0.435547 0.000980062 1.00018 9.80062e-07 1000 1.00018 1.00116 0.000974625 -0.00665009 10001.8 0 0 0 
0.00195312 0.439453 0.000925143 1.00018 9.25143e-07 1000 1.00018 1.0011 0.000973481 -0.00602025 10001.8 0 0 0 
0.00195312 0.443359 0.000911043 1.00017 9.11043e-07 1000 1.00017 1.00108 0.000972864 -0.00542646 10001.7 0 0 0 
0.00195312 0.447266 0.000927738 1.00017 9.27737e-07 1000 1.00017 1.0011 0.000973315 -0.00486831 10001.7 0 0 0 
0.00195312 0.451172 0.000959665 1.00016 9.59665e-07 1000 1.00017 1.00112 0.000974731 -0.00434648 10001.7 0 0 0 
0.00195312 0.455078 0.000992127 1.00016 9.92126e-07 1000 1.00016 1.00115 0.000976673 -0.00385965 10001.6 0 0 0 
0.00195312 0.458984 0.00101533 1.00016 1.01533e-06 1000 1.00016 1.00117 0.000978699 -0.00340742 10001.6 0 0 0 
0.00195312 0.462891 0.00102564 1.00015 1.02564e-06 1000 1.00015 1.00118 0.000980556 -0.00298534 10001.5 0 0 0 
0.00195312 0.466797 0.00102457 1.00015 1.02457e-06 1000 1.00015 1.00117 0.0009822 -0.00259408 10001.5 0 0 0 
0.00195312 0.470703 0.00101658 1.00015 1.01658e-06 1000 1.00015 1.00116 0.000983706 -0.00222498 10001.5 0 0 0 
0.00195312 0.474609 0.00100671 1.00014 1.00671e-06 1000 1.00014 1.00115 0.000985145 -0.00188538 10001.4 0 0 0 
0.00195312 0.478516 0.000998799 1.00014 9.98799e-07 1000 1.00014 1.00114 0.000986501 -0.00155588 10001.4 0 0 0 
0.00195312 0.482422 0.000994693 1.00014 9.94693e-07 1000 1.00014 1.00113 0.000987662 -0.00126325 10001.4 0 0 0 
0.00195312 0.486328 0.000994258 1.00013 9.94258e-07 1000 1.00014 1.00113 0.000988487 -0.000956486 10001.4 0 0 0 
0.00195312 0.490234 0.00099605 1.00013 9.9605e-07 1000 1.00013 1.00113 0.000988914 -0.000721676 10001.3 0 0 0 
0.00195312 0.494141 0.000998227 1.00013 9.98227e-07 1000 1.00013 1.00113 0.000989002 -0.000407473 10001.3 0 0 0 
0.00195312 0.498047 0.000999428 1.00013 9.99427e-07 1000 1.00013 1.00113 0.000988951 -0.000315586 10001.3 0 0 0 
0.00585938 0.00195312 1000.2 8.54106e-07 0.999999 1000.2 1.20279 1000.2 0.00217917 -0.000861012 12027.9 0 0 0 
0.00585938 0.00585938 1000.2 8.87538e-07 0.999999 1000.2 1.19966 1000.2 0.0021797 -0.0020985 11996.6 0 0 0 
0.00585938 0.00976562 1000.2 9.43174e-07 0.999999 1000.2 1.19789 1000.2 0.00218148 -0.00351293 11978.9 0 0 0 
0.00585938 0.0136719 1000.19 1.00273e-06 0.999999 1000.2 1.19519 1000.19 0.002185 -0.00485557 11951.9 0 0 0 
0.00585938 0.0175781 1000.19 1.0508e-06 0.999999 1000.19 1.19289 1000.19 0.00219043 -0.0062615 11928.9 0 0 0 
0.00585938 0.0214844 1000.19 1.07963e-06 0.999999 1000.19 1.19027 1000.19 0.00219765 -0.0076462 11902.7 0 0 0 
0.00585938 0.0253906 1000.19 1.08814e-06 0.999999 1000.19 1.1878 1000.19 0.00220632 -0.00905415 11878 0 0 0 
0.00585938 0.0292969 1000.18 1.07987e-06 0.999999 1000.19 1.18521 1000.18 0.00221604 -0.010459 11852.1 0 0 0 
0.00585938 0.0332031 1000.18 1.06057e-06 0.999999 1000.18 1.18267 1000.18 0.00222649 -0.0118764 11826.7 0 0 0 
0.00585938 0.0371094 1000.18 1.03637e-06 0.999999 1000.18 1.18008 1000.18 0.00223748 -0.0132977 11800.8 0 0 0 
0.00585938 0.0410156 1000.18 1.01269e-06 0.999999 1000.18 1.17749 1000.18 0.00224903 -0.0147284 11774.9 0 0 0 
0.00585938 0.0449219 1000.17 9.93862e-07 0.999999 1000.17 1.17488 1000.17 0.00226127 -0.0161659 11748.8 0 0 0 
0.00585938 0.0488281 1000.17 9.83032e-07 0.999999 1000.17 1.17227 1000.17 0.00227445 -0.0176126 11722.7 0 0 0 
0.00585938 0.0527344 1000.17 9.81866e-07 0.999999 1000.17 1.16964 1000.17 0.00228883 -0.0190681 11696.4 0 0 0 
0.00585938 0.0566406 1000.17 9.90068e-07 0.999999 1000.17 1.167 1000.17 0.00230463 -0.0205339 11670 0 0 0 
0.00585938 0.0605469 1000.16 1.00483e-06 0.999999 1000.16 1.16434 1000.16 0.00232195 -0.0220108 11643.4 0 0 0 
0.00585938 0.0644531 1000.16 1.02077e-06 0.999999 1000.16 1.16168 1000.16 0.00234066 -0.0234998 11616.8 0 0 0 
0.00585938 0.0683594 1000.16 1.03077e-06 0.999999 1000.16 1.159 1000.16 0.0023604 -0.0250017 11590 0 0 0 
0.00585938 0.0722656 1000.16 1.02813e-06 0.999999 1000.16 1.15631 1000.16 0.00238076 -0.0265171 11563.1 0 0 0 
0.00585938 0.0761719 1000.15 1.00946e-06 0.999999 1000.15 1.1536 1000.15 0.00240159 -0.0280464 11536 0 0 0 
0.00585938 0.0800781 1000.15 9.77602e-07 0.999999 1000.15 1.15089 1000.15 0.00242328 -0.0295899 11508.9 0 0 0 
0.00585938 0.0839844 1000.15 9.43213e-07 0.999999 1000.15 1.14817 1000.15 0.0024468 -0.0311486 11481.7 0 0 0 
0.00585938 0.0878906 1000.14 9.23582e-07 0.999999 1000.15 1.14543 1000.14 0.00247325 -0.0327241 11454.3 0 0 0 
0.00585938 0.0917969 1000.14 9.37657e-07 0.999999 1000.14 1.14269 1000.14 0.00250304 -0.0343185 11426.9 0 0 0 
0.00585938 0.0957031 1000.14 9.97228e-07 0.999999 1000.14 1.13993 1000.14 0.00253535 -0.0359336 11399.3 0 0 0 
0.00585938 0.0996094 1000.14 1.09638e-06 0.999999 1000.14 1.13717 1000.14 0.00256839 -0.0375708 11371.7 0 0 0 
0.00585938 0.103516 1000.13 1.20403e-06 0.999999 1000.13 1.1344 1000.13 0.00260045 -0.0392298 11344 0 0 0 
0.00585938 0.107422 1000.13 1.26621e-06 0.999999 1000.13 1.13161 1000.13 0.00263097 -0.0409099 11316.1 0 0 0 
0.00585938 0.111328 1000.13 1.22318e-06 0.999999 1000.13 1.12882 1000.13 0.00266064 -0.0426104 11288.2 0 0 0 
0.00585938 0.115234 1000.13 1.04003e-06 0.999999 1000.13 1.12602 1000.13 0.00269034 -0.0443309 11260.2 0 0 0 
0.00585938 0.119141 1000.12 7.39642e-07 0.999999 1000.12 1.12321 1000.12 0.00272034 -0.046072 11232.1 0 0 0 
0.00585938 0.123047 1000.12 4.19228e-07 1 1000.12 1.12039 1000.12 0.00275137 -0.0478335 11203.9 0 0 0 
0.00585938 0.126953 1000.12 2.3351e-07 1 1000.12 1.11756 1000.12 0.0027877 -0.0496183 11175.6 0 0 0 
0.00585938 0.130859 1000.11 3.41048e-07 1 1000.11 1.11474 1000.11 0.00283925 -0.0514318 11147.4 0 0 0 
0.00585938 0.134766 1000.11 8.30796e-07 0.999999 1000.11 1.11189 1000.11 0.00291829 -0.0532899 11118.9 0 0 0 
0.00585938 0.138672 1000.11 1.6607e-06 0.999999 1000.11 1.10906 1000.11 0.00302882 -0.0552088 11090.6 0 0 0 
0.00585938 0.142578 1000.1 2.63827e-06 0.999998 1000.11 1.10619 1000.1 0.00315415 -0.0572094 11061.9 0 0 0 
0.00585938 0.146484 1000.1 3.45574e-06 0.999997 1000.1 1.10337 1000.1 0.00325228 -0.0592784 11033.7 0 0 0 
0.00585938 0.150391 1000.1 3.77178e-06 0.999997 1000.1 1.10045 1000.1 0.00326888 -0.0613971 11004.5 0 0 0 
0.00585938 0.154297 1000.09 3.33049e-06 0.999997 1000.1 1.0977 1000.09 0.00316686 -0.063472 10977 0 0 0 
0.00585938 0.158203 1000.09 2.12571e-06 0.999998 1000.09 1.09465 1000.09 0.00296471 -0.0654827 10946.5 0 0 0 
0.00585938 0.162109 1000.09 6.36595e-07 0.999999 1000.09 1.09227 1000.09 0.0027458 -0.0673228 10922.7 0 0 0 
0.00585938 0.166016 1000.09 1.61437e-07 1 1000.09 1.08689 1000.09 0.00264083 -0.0691946 10868.9 1 0 0 
0.00585938 0.169922 1000.08 3.21618e-06 0.999997 1000.09 1.08575 1000.08 0.00273013 -0.0708307 10857.5 0 0 0 
0.00585938 0.173828 1000.07 1.30598e-05 0.999988 1000.08 1.08314 1000.07 0.00294139 -0.0726346 10831.4 0 0 0 
0.00585938 0.177734 1000.05 2.88604e-05 0.999973 1000.08 1.08029 1000.05 0.00315196 -0.0746118 10802.9 0 0 0 
0.00585938 0.181641 1000.03 4.65554e-05 0.999957 1000.08 1.07735 1000.03 0.0032958 -0.0767081 10773.5 0 0 0 
0.00585938 0.185547 1000.02 6.03297e-05 0.999944 1000.07 1.07443 1000.02 0.00337822 -0.0788793 10744.3 0 0 0 
0.00585938 0.189453 1000.01 6.49326e-05 0.999939 1000.07 1.0715 1000.01 0.00344458 -0.0810968 10715 0 0 0 
0.00585938 0.193359 1000.01 5.87725e-05 0.999945 1000.07 1.06856 1000.01 0.0035341 -0.0833647 10685.6 0 0 0 
0.00585938 0.197266 1000.02 4.73859e-05 0.999956 1000.07 1.06563 1000.02 0.00365429 -0.0857003 10656.3 0 0 0 
0.00585938 0.201172 1000.02 4.66867e-05 0.999956 1000.06 1.06269 1000.02 0.00378424 -0.0881174 10626.9 0 0 0 
0.00585938 0.205078 999.979 8.56641e-05 0.999919 1000.06 1.05974 999.979 0.00389561 -0.090612 10597.4 0 0 0 
0.00585938 0.208984 999.859 0.000209017 0.999802 1000.06 1.05679 999.859 0.00397181 -0.0931646 10567.9 0 0 0 
0.00585938 0.212891 999.597 0.000481475 0.999543 1000.05 1.05383 999.597 0.00401508 -0.0957491 10538.3 0 0 0 
0.00585938 0.216797 999.102 0.00099727 0.999051 1000.05 1.05086 999.103 0.0040413 -0.0983429 10508.6 0 0 0 
0.00585938 0.220703 998.234 0.00190092 0.998186 1000.05 1.04788 998.236 0.00406903 -0.10093 10478.8 0 0 0 
0.00585938 0.224609 996.762 0.0034305 0.996717 1000.04 1.04488 996.765 0.00411061 -0.103498 10448.8 0 0 0 
0.00585938 0.228516 994.279 0.00600393 0.994237 1000.04 1.04184 994.285 0.00416853 -0.106027 10418.4 0 0 0 
0.00585938 0.232422 990.037 0.0103885 0.989999 1000.04 1.03875 990.048 0.00423579 -0.108477 10387.5 0 0 0 
0.00585938 0.236328 982.616 0.0180391 0.982581 1000.04 1.03558 982.634 0.00429714 -0.110766 10355.8 0 0 0 
0.00585938 0.240234 969.222 0.0318029 0.969191 1000.03 1.03227 969.254 0.00432957 -0.112739 10322.7 0 0 0 
0.00585938 0.244141 944.143 0.057491 0.944116 1000.03 1.02875 944.2 0.00430641 -0.114134 10287.5 0 0 0 
0.00585938 0.248047 894.596 0.108061 0.894574 1000.02 1.02499 894.704 0.00420679 -0.114445 10249.9 0 0 0 
0.00585938 0.251953 799.695 0.20447 0.799679 1000.02 1.02071 799.9 0.00402704 -0.112807 10207.1 0 0 0 
0.00585938 0.255859 654.163 0.351376 0.654153 1000.02 1.01599 654.515 0.00379465 -0.108527 10159.9 0 0 0 
0.00585938 0.259766 480.103 0.525727 0.480097 1000.01 1.0112 480.629 0.00354639 -0.101846 10112 0 0 0 
0.00585938 0.263672 309.967 0.694954 0.309965 1000.01 1.00713 310.662 0.00333897 -0.0936828 10071.3 0 0 0 
0.00585938 0.267578 174.962 0.828587 0.174961 1000 1.0043 175.791 0.00322999 -0.0853738 10043 0 0 0 
0.00585938 0.271484 92.0362 0.910367 0.092036 1000 1.00265 92.9466 0.00323542 -0.0780539 10026.5 0 0 0 
0.00585938 0.275391 49.6953 0.95195 0.0496953 1000 1.00173 50.6473 0.00334897 -0.0720417 10017.3 0 0 0 
0.00585938 0.279297 27.8678 0.973311 0.0278678 1000 1.00121 28.8411 0.00353002 -0.0672422 10012.1 0 0 0 
0.00585938 0.283203 16.0246 0.984871 0.0160246 1000 1.00091 17.0095 0.00372105 -0.0634088 10009.1 0 0 0 
0.00585938 0.287109 9.3575 0.991365 0.00935749 1000 1.00073 10.3489 0.00386874 -0.0602778 10007.3 0 0 0 
0.00585938 0.291016 5.48785 0.995127 0.00548784 1000 1.00062 6.48297 0.00397497 -0.0576433 10006.2 0 0 0 
0.00585938 0.294922 3.18786 0.997359 0.00318786 1000 1.00055 4.18522 0.00412467 -0.0553756 10005.5 0 0 0 
0.00585938 0.298828 1.80297 0.998699 0.00180297 1000 1.0005 2.80167 0.00444137 -0.0534579 10005 0 0 0 
0.00585938 0.302734 0.972704 0.9995 0.000972704 1000 1.00047 1.9722 0.00496741 -0.051966 10004.7 0 0 0 
0.00585938 0.306641 0.489674 0.999962 0.000489674 1000 1.00045 1.48964 0.00558989 -0.0509723 10004.5 0 0 0 
0.00585938 0.310547 0.227096 1.00021 0.000227096 1000 1.00044 1.2273 0.0061027 -0.050449 10004.4 0 0 0 
0.00585938 0.314453 0.101971 1.00032 0.000101971 1000 1.00042 1.10229 0.00630597 -0.0502556 10004.2 0 0 0 
0.00585938 0.318359 0.0570595 1.00035 5.70595e-05 1000 1.00041 1.05741 0.00610596 -0.0501447 10004.1 0 0 0 
0.00585938 0.322266 0.0524239 1.00034 5.24238e-05 1000 1.0004 1.05277 0.00557265 -0.0498552 10004 0 0 0 
0.00585938 0.326172 0.0614472 1.00032 6.14472e-05 1000 1.00039 1.06177 0.00486327 -0.0492171 10003.9 0 0 0 
0.00585938 0.330078 0.0685144 1.00031 6.85143e-05 1000 1.00037 1.06882 0.00412017 -0.0481637 10003.7 0 0 0 
0.00585938 0.333984 0.0668909 1.0003 6.68909e-05 1000 1.00036 1.06719 0.00344192 -0.0466967 10003.6 0 0 0 
0.00585938 0.337891 0.056282 1.0003 5.6282e-05 1000 1.00035 1.05658 0.0028763 -0.044889 10003.5 0 0 0 
0.00585938 0.341797 0.0401764 1.0003 4.01764e-05 1000 1.00034 1.04048 0.00242939 -0.0427952 10003.4 0 0 0 
0.00585938 0.345703 0.0233595 1.00031 2.33595e-05 1000 1.00033 1.02367 0.00208145 -0.0405222 10003.3 0 0 0 
0.00585938 0.349609 0.00996593 1.00031 9.96592e-06 1000 1.00032 1.01028 0.00181068 -0.0380744 10003.2 0 0 0 
0.00585938 0.353516 0.00225695 1.00031 2.25695e-06 1000 1.00032 1.00257 0.0016197 -0.0356508 10003.2 0 0 0 
0.00585938 0.357422 8.1702e-05 1.00031 8.1702e-08 1000 1.00031 1.00039 0.00153668 -0.0332052 10003.1 1 0 0 
0.00585938 0.361328 0.000802978 1.0003 8.02977e-07 1000 1.0003 1.0011 0.00155785 -0.030417 10003 0 0 0 
0.00585938 0.365234 0.00261389 1.00029 2.61389e-06 1000 1.00029 1.0029 0.00167811 -0.0280699 10002.9 0 0 0 
0.00585938 0.369141 0.00423846 1.00028 4.23846e-06 1000 1.00028 1.00452 0.00189049 -0.0257338 10002.8 0 0 0 
0.00585938 0.373047 0.00499872 1.00027 4.99872e-06 1000 1.00028 1.00527 0.00217067 -0.0237329 10002.8 0 0 0 
0.00585938 0.376953 0.00476329 1.00026 4.76329e-06 1000 1.00027 1.00503 0.00246858 -0.0219189 10002.7 0 0 0 
0.00585938 0.380859 0.00378502 1.00026 3.78502e-06 1000 1.00026 1.00404 0.00272579 -0.0203789 10002.6 0 0 0 
0.00585938 0.384766 0.00248844 1.00025 2.48844e-06 1000 1.00025 1.00274 0.00290033 -0.0190138 10002.5 0 0 0 
0.00585938 0.388672 0.00128123 1.00025 1.28123e-06 1000 1.00025 1.00153 0.00298181 -0.0177994 10002.5 0 0 0 
0.00585938 0.392578 0.000436639 1.00024 4.36639e-07 1000 1.00024 1.00068 0.00298951 -0.0166637 10002.4 0 0 0 
0.00585938 0.396484 5.1773e-05 1.00024 5.1773e-08 1000 1.00024 1.00029 0.00295654 -0.0155758 10002.4 1 0 0 
0.00585938 0.400391 5.81185e-05 1.00023 5.81185e-08 1000 1.00023 1.00029 0.00291037 -0.0144967 10002.3 0 0 0 
0.00585938 0.404297 0.000313133 1.00022 3.13133e-07 1000 1.00022 1.00054 0.00287102 -0.01345 10002.2 0 0 0 
0.00585938 0.408203 0.000665504 1.00022 6.65504e-07 1000 1.00022 1.00088 0.00285099 -0.0124173 10002.2 0 0 0 
0.00585938 0.412109 0.000989896 1.00021 9.89896e-07 1000 1.00021 1.0012 0.00285272 -0.0114282 10002.1 0 0 0 
0.00585938 0.416016 0.00120877 1.00021 1.20877e-06 1000 1.00021 1.00141 0.00287081 -0.0104883 10002.1 0 0 0 
0.00585938 0.419922 0.00129753 1.0002 1.29753e-06 1000 1.0002 1.0015 0.00289581 -0.0096119 10002 0 0 0 
0.00585938 0.423828 0.00127477 1.0002 1.27477e-06 1000 1.0002 1.00147 0.00291844 -0.00879674 10002 0 0 0 
0.00585938 0.427734 0.00118381 1.00019 1.18381e-06 1000 1.00019 1.00137 0.00293284 -0.00803913 10001.9 0 0 0 
0.00585938 0.431641 0.00107282 1.00019 1.07282e-06 1000 1.00019 1.00126 0.00293794 -0.00732971 10001.9 0 0 0 
0.00585938 0.435547 0.000979803 1.00018 9.79803e-07 1000 1.00018 1.00116 0.00293665 -0.00666196 10001.8 0 0 0 
0.00585938 0.439453 0.000925033 1.00018 9.25032e-07 1000 1.00018 1.0011 0.00293345 -0.00603123 10001.8 0 0 0 
0.00585938 0.443359 0.000911073 1.00017 9.11073e-07 1000 1.00017 1.00108 0.00293197 -0.00543656 10001.7 0 0 0 
0.00585938 0.447266 0.000927857 1.00017 9.27857e-07 1000 1.00017 1.0011 0.00293373 -0.00487772 10001.7 0 0 0 
0.00585938 0.451172 0.000959807 1.00016 9.59807e-07 1000 1.00017 1.00112 0.00293837 -0.00435534 10001.7 0 0 0 
0.00585938 0.455078 0.000992237 1.00016 9.92237e-07 1000 1.00016 1.00115 0.00294453 -0.00386798 10001.6 0 0 0 
0.00585938 0.458984 0.00101538 1.00016 1.01538e-06 1000 1.00016 1.00117 0.00295092 -0.00341511 10001.6 0 0 0 
0.00585938 0.462891 0.00102564 1.00015 1.02564e-06 1000 1.00015 1.00118 0.00295679 -0.00299228 10001.5 0 0 0 
0.00585938 0.466797 0.00102453 1.00015 1.02453e-06 1000 1.00015 1.00117 0.00296201 -0.00260021 10001.5 0 0 0 
0.00585938 0.470703 0.00101653 1.00015 1.01653e-06 1000 1.00015 1.00116 0.00296678 -0.00223029 10001.5 0 0 0 
0.00585938 0.474609 0.00100666 1.00014 1.00666e-06 1000 1.00014 1.00115 0.00297132 -0.00188989 10001.4 0 0 0 
0.00585938 0.478516 0.000998771 1.00014 9.98771e-07 1000 1.00014 1.00114 0.00297557 -0.00155962 10001.4 0 0 0 
0.00585938 0.482422 0.000994682 1.00014 9.94682e-07 1000 1.00014 1.00113 0.00297919 -0.00126624 10001.4 0 0 0 
0.00585938 0.486328 0.00099426 1.00013 9.94259e-07 1000 1.00014 1.00113 0.00298177 -0.000958744 10001.4 0 0 0 
0.00585938 0.490234 0.000996058 1.00013 9.96058e-07 1000 1.00013 1.00113 0.00298313 -0.000723246 10001.3 0 0 0 
0.00585938 0.494141 0.000998237 1.00013 9.98237e-07 1000 1.00013 1.00113 0.00298345 -0.000408373 10001.3 0 0 0 
0.00585938 0.498047 0.000999438 1.00013 9.99438e-07 1000 1.00013 1.00113 0.00298331 -0.000315872 10001.3 0 0 0 
0.00976562 0.00195312 1000.2 8.52098e-07 0.999999 1000.2 1.20276 1000.2 0.00363049 -0.000860572 12027.6 0 0 0 
0.00976562 0.00585938 1000.2 8.85448e-07 0.999999 1000.2 1.19962 1000.2 0.00363136 -0.00209717 11996.2 0 0 0 
0.00976562 0.00976562 1000.2 9.40948e-07 0.999999 1000.2 1.19786 1000.2 0.00363431 -0.00351068 11978.6 0 0 0 
0.00976562 0.0136719 1000.19 1.00036e-06 0.999999 1000.2 1.19515 1000.19 0.00364016 -0.00485238 11951.5 0 0 0 
0.00976562 0.0175781 1000.19 1.04832e-06 0.999999 1000.19 1.19285 1000.19 0.00364922 -0.00625738 11928.5 0 0 0 
0.00976562 0.0214844 1000.19 1.07708e-06 0.999999 1000.19 1.19024 1000.19 0.00366126 -0.00764114 11902.4 0 0 0 
0.00976562 0.0253906 1000.19 1.08556e-06 0.999999 1000.19 1.18776 1000.19 0.00367572 -0.00904816 11877.6 0 0 0 
0.00976562 0.0292969 1000.18 1.0773e-06 0.999999 1000.19 1.18518 1000.18 0.00369192 -0.0104521 11851.8 0 0 0 
0.00976562 0.0332031 1000.18 1.05803e-06 0.999999 1000.18 1.18263 1000.18 0.00370933 -0.0118686 11826.3 0 0 0 
0.00976562 0.0371094 1000.18 1.03385e-06 0.999999 1000.18 1.18004 1000.18 0.00372766 -0.013289 11800.4 0 0 0 
0.00976562 0.0410156 1000.18 1.0102e-06 0.999999 1000.18 1.17746 1000.18 0.0037469 -0.0147188 11774.6 0 0 0 
0.00976562 0.0449219 1000.17 9.91416e-07 0.999999 1000.17 1.17485 1000.17 0.00376731 -0.0161555 11748.5 0 0 0 
0.00976562 0.0488281 1000.17 9.80636e-07 0.999999 1000.17 1.17224 1000.17 0.00378928 -0.0176012 11722.4 0 0 0 
0.00976562 0.0527344 1000.17 9.79517e-07 0.999999 1000.17 1.16961 1000.17 0.00381325 -0.0190559 11696.1 0 0 0 
0.00976562 0.0566406 1000.17 9.87743e-07 0.999999 1000.17 1.16696 1000.17 0.00383958 -0.0205209 11669.6 0 0 0 
0.00976562 0.0605469 1000.16 1.00249e-06 0.999999 1000.16 1.16431 1000.16 0.00386842 -0.0219968 11643.1 0 0 0 
0.00976562 0.0644531 1000.16 1.01836e-06 0.999999 1000.16 1.16164 1000.16 0.00389955 -0.0234849 11616.4 0 0 0 
0.00976562 0.0683594 1000.16 1.02826e-06 0.999999 1000.16 1.15896 1000.16 0.00393241 -0.0249859 11589.6 0 0 0 