TITLE=FvSolution
VARIABLES=X Y RHO1Z1 RHO2Z2 Z1 RHO1 RHO2 RHO U V PRE theta lambdaX lambdaY 
ZONE T=TA, I=128, J=128, DATAPACKING = POINT
0.00195312 0.00195312 1000.12 9.26007e-07 0.999999 1000.12 1.1188 1000.12 -0.000303472 5.7752e-05 11188 0 0 0 
0.00195312 0.00585938 1000.11 9.39141e-07 0.999999 1000.12 1.11546 1000.11 -0.000300474 0.000689948 11154.6 0 0 0 
0.00195312 0.00976562 1000.11 9.81746e-07 0.999999 1000.11 1.11356 1000.11 -0.000295675 0.00111723 11135.6 0 0 0 
0.00195312 0.0136719 1000.11 1.02709e-06 0.999999 1000.11 1.11092 1000.11 -0.000290961 0.00159915 11109.2 0 0 0 
0.00195312 0.0175781 1000.11 1.04386e-06 0.999999 1000.11 1.1087 1000.11 -0.000287347 0.00202348 11087 0 0 0 
0.00195312 0.0214844 1000.11 1.03789e-06 0.999999 1000.11 1.10624 1000.11 -0.000284998 0.00246563 11062.4 0 0 0 
0.00195312 0.0253906 1000.1 1.02864e-06 0.999999 1000.1 1.10395 1000.1 -0.000283683 0.00288918 11039.5 0 0 0 
0.00195312 0.0292969 1000.1 1.01949e-06 0.999999 1000.1 1.10158 1000.1 -0.000283151 0.00331966 11015.8 0 0 0 
0.00195312 0.0332031 1000.1 1.01121e-06 0.999999 1000.1 1.09928 1000.1 -0.000283256 0.00374529 10992.8 0 0 0 
0.00195312 0.0371094 1000.1 1.00435e-06 0.999999 1000.1 1.09696 1000.1 -0.000283925 0.00417522 10969.6 0 0 0 
0.00195312 0.0410156 1000.09 9.99295e-07 0.999999 1000.09 1.09467 1000.09 -0.000285076 0.00460604 10946.7 0 0 0 
0.00195312 0.0449219 1000.09 9.96157e-07 0.999999 1000.09 1.09238 1000.09 -0.000286573 0.0050413 10923.8 0 0 0 
0.00195312 0.0488281 1000.09 9.94764e-07 0.999999 1000.09 1.09011 1000.09 -0.000288239 0.00548001 10901.1 0 0 0 
0.00195312 0.0527344 1000.09 9.94715e-07 0.999999 1000.09 1.08784 1000.09 -0.000289905 0.00592331 10878.4 0 0 0 
0.00195312 0.0566406 1000.08 9.95523e-07 0.999999 1000.09 1.08559 1000.08 -0.000291461 0.0063706 10855.9 0 0 0 
0.00195312 0.0605469 1000.08 9.96738e-07 0.999999 1000.08 1.08335 1000.08 -0.000292888 0.00682201 10833.5 0 0 0 
0.00195312 0.0644531 1000.08 9.98032e-07 0.999999 1000.08 1.08112 1000.08 -0.000294255 0.00727722 10811.2 0 0 0 
0.00195312 0.0683594 1000.08 9.99211e-07 0.999999 1000.08 1.07889 1000.08 -0.000295683 0.00773641 10788.9 0 0 0 
0.00195312 0.0722656 1000.08 1.0002e-06 0.999999 1000.08 1.07668 1000.08 -0.000297289 0.00819983 10766.8 0 0 0 
0.00195312 0.0761719 1000.07 1.00101e-06 0.999999 1000.07 1.07447 1000.07 -0.000299146 0.00866803 10744.7 0 0 0 
0.00195312 0.0800781 1000.07 1.00167e-06 0.999999 1000.07 1.07227 1000.07 -0.000301247 0.00914158 10722.7 0 0 0 
0.00195312 0.0839844 1000.07 1.00226e-06 0.999999 1000.07 1.07009 1000.07 -0.000303512 0.00962096 10700.9 0 0 0 
0.00195312 0.0878906 1000.07 1.00282e-06 0.999999 1000.07 1.06791 1000.07 -0.000305803 0.0101064 10679.1 0 0 0 
0.00195312 0.0917969 1000.06 1.0034e-06 0.999999 1000.07 1.06575 1000.06 -0.000307965 0.010598 10657.5 0 0 0 
0.00195312 0.0957031 1000.06 1.00403e-06 0.999999 1000.06 1.06359 1000.06 -0.000309872 0.0110953 10635.9 0 0 0 
0.00195312 0.0996094 1000.06 1.0048e-06 0.999999 1000.06 1.06145 1000.06 -0.000311465 0.0115978 10614.5 0 0 0 
0.00195312 0.103516 1000.06 1.006e-06 0.999999 1000.06 1.05931 1000.06 -0.000312788 0.0121049 10593.1 0 0 0 
0.00195312 0.107422 1000.06 1.00857e-06 0.999999 1000.06 1.05719 1000.06 -0.000313995 0.0126164 10571.9 0 0 0 
0.00195312 0.111328 1000.05 1.02025e-06 0.999999 1000.06 1.05507 1000.05 -0.000315348 0.0131323 10550.7 0 0 0 
0.00195312 0.115234 1000.05 1.05962e-06 0.999999 1000.05 1.05297 1000.05 -0.000317175 0.0136532 10529.7 0 0 0 
0.00195312 0.119141 1000.05 1.13671e-06 0.999999 1000.05 1.05087 1000.05 -0.000319807 0.0141805 10508.7 0 0 0 
0.00195312 0.123047 1000.05 1.2508e-06 0.999999 1000.05 1.04879 1000.05 -0.00032348 0.0147161 10487.9 0 0 0 
0.00195312 0.126953 1000.05 1.39589e-06 0.999999 1000.05 1.04671 1000.05 -0.000328214 0.0152621 10467.1 0 0 0 
0.00195312 0.130859 1000.04 1.57146e-06 0.999998 1000.04 1.04465 1000.04 -0.000333694 0.0158205 10446.5 0 0 0 
0.00195312 0.134766 1000.04 1.80326e-06 0.999998 1000.04 1.04259 1000.04 -0.000339198 0.0163921 10425.9 0 0 0 
0.00195312 0.138672 1000.04 2.20228e-06 0.999998 1000.04 1.04055 1000.04 -0.00034361 0.016976 10405.5 0 0 0 
0.00195312 0.142578 1000.04 3.54617e-06 0.999997 1000.04 1.03851 1000.04 -0.000345568 0.0175687 10385.1 0 0 0 
0.00195312 0.146484 1000.03 7.48694e-06 0.999993 1000.04 1.03648 1000.03 -0.000343762 0.0181638 10364.8 0 0 0 
0.00195312 0.150391 1000.02 1.49737e-05 0.999986 1000.03 1.03445 1000.02 -0.000337327 0.0187528 10344.5 0 0 0 
0.00195312 0.154297 1000.01 2.61417e-05 0.999975 1000.03 1.03244 1000.01 -0.000326226 0.0193261 10324.4 0 0 0 
0.00195312 0.158203 999.991 4.05611e-05 0.999961 1000.03 1.03043 999.991 -0.000311471 0.019875 10304.3 0 0 0 
0.00195312 0.162109 999.972 5.76675e-05 0.999944 1000.03 1.02843 999.972 -0.000295046 0.0203942 10284.3 0 0 0 
0.00195312 0.166016 999.951 7.74197e-05 0.999925 1000.03 1.02643 999.951 -0.000279507 0.0208825 10264.3 0 0 0 
0.00195312 0.169922 999.926 0.000101238 0.999901 1000.02 1.02444 999.926 -0.000267271 0.0213444 10244.4 0 0 0 
0.00195312 0.173828 999.892 0.000133379 0.99987 1000.02 1.02245 999.892 -0.000259816 0.0217875 10224.5 0 0 0 
0.00195312 0.177734 999.773 0.000252679 0.999752 1000.02 1.02047 999.773 -0.000257285 0.02222 10204.7 0 0 0 
0.00195312 0.181641 999.314 0.000717626 0.999295 1000.02 1.01849 999.315 -0.000259452 0.0226396 10184.9 0 0 0 
0.00195312 0.185547 998.337 0.00170687 0.998321 1000.02 1.01651 998.339 -0.000267491 0.0230318 10165.1 0 0 0 
0.00195312 0.189453 996.805 0.00325604 0.996791 1000.01 1.01455 996.808 -0.000283629 0.0233845 10145.5 0 0 0 
0.00195312 0.193359 994.805 0.00527297 0.994793 1000.01 1.01262 994.811 -0.000309369 0.0236955 10126.2 0 0 0 
0.00195312 0.197266 992.5 0.00759153 0.992489 1000.01 1.01072 992.507 -0.000344628 0.0239769 10107.2 0 0 0 
0.00195312 0.201172 990.012 0.0100848 0.990004 1000.01 1.00885 990.023 -0.000388138 0.0242521 10088.5 0 0 0 
0.00195312 0.205078 987.232 0.0128645 0.987225 1000.01 1.00704 987.245 -0.000437879 0.0245481 10070.4 0 0 0 
0.00195312 0.208984 983.328 0.0167647 0.983323 1000.01 1.00527 983.345 -0.000490689 0.0248753 10052.7 0 0 0 
0.00195312 0.212891 974.797 0.0252968 0.974794 1000 1.00359 974.823 -0.000541667 0.0251852 10035.9 0 0 0.349959 
0.00195312 0.216797 954.502 0.0455908 0.9545 1000 1.002 954.548 -0.000584416 0.0253 10020 0 0 0.35 
0.00195312 0.220703 906.241 0.0938124 0.906241 1000 1.00057 906.335 -0.000610052 0.0249094 10005.7 0 0 0.35 
0.00195312 0.224609 769.693 0.230165 0.769693 999.999 0.999387 769.923 -0.000605574 0.0233049 9993.87 0 0 0.35 
0.00195312 0.228516 479.423 0.519984 0.479424 999.999 0.998862 479.943 -0.000559716 0.0198845 9988.62 0 0 0.35 
0.00195312 0.232422 210.058 0.789078 0.210058 999.999 0.998906 210.847 -0.000469176 0.0157573 9989.06 0 0 0.35 
0.00195312 0.236328 93.789 0.905345 0.0937891 999.999 0.999045 94.6944 -0.000338467 0.0116328 9990.45 0 0 0.35 
0.00195312 0.240234 51.1258 0.948087 0.0511259 999.999 0.99917 52.0739 -0.000171848 0.00815826 9991.7 0 0 0.35 
0.00195312 0.244141 31.9672 0.967327 0.0319672 999.999 0.999271 32.9345 8.0485e-06 0.00508914 9992.71 0 0.00118638 0.32628 
0.00195312 0.248047 22.5838 0.97678 0.0225838 999.999 0.999349 23.5606 0.000142529 0.00223845 9993.49 0 0 0 
0.00195312 0.251953 16.9588 0.982464 0.0169589 999.999 0.999413 17.9413 0.000167386 -0.000420598 9994.13 0 0 0 
0.00195312 0.255859 12.4282 0.987043 0.0124282 999.999 0.999465 13.4152 4.59124e-05 -0.00270118 9994.65 0 0 0 
0.00195312 0.259766 8.50963 0.990999 0.00850964 1000 0.999504 9.50063 -0.000202702 -0.00437307 9995.04 0 0 0 
0.00195312 0.263672 5.29972 0.994235 0.00529972 1000 0.999532 6.29395 -0.000516651 -0.00529818 9995.32 0 0 0 
0.00195312 0.267578 2.9273 0.996625 0.0029273 1000 0.999551 3.92392 -0.000849811 -0.00544127 9995.51 0 -0.00133574 0 
0.00195312 0.271484 1.37879 0.998184 0.00137879 1000 0.999562 2.37697 -0.00114774 -0.00485847 9995.62 0 0 0 
0.00195312 0.275391 0.520047 0.99905 0.000520047 1000 0.999569 1.5191 -0.00133625 -0.00371985 9995.69 0 0 0 
0.00195312 0.279297 0.157319 0.999417 0.00015732 1000 0.999574 1.15674 -0.00134917 -0.00233446 9995.74 0 0 0 
0.00195312 0.283203 0.0762403 0.999502 7.62403e-05 1000 0.999578 1.07574 -0.00118339 -0.00107991 9995.78 0 0 0 
0.00195312 0.287109 0.0593066 0.999522 5.93066e-05 1000 0.999581 1.05883 -0.000907206 -0.000257027 9995.81 0 0 0 
0.00195312 0.291016 0.0469217 0.999538 4.69217e-05 1000 0.999585 1.04646 -0.000609309 1.42698e-05 9995.85 0 0 0 
0.00195312 0.294922 0.037234 0.99955 3.7234e-05 1000 0.999588 1.03678 -0.000365998 -0.000236359 9995.88 0 0 0 
0.00195312 0.298828 0.0292506 0.999561 2.92506e-05 1000 0.99959 1.02881 -0.00022126 -0.000850497 9995.9 0 0 0 
0.00195312 0.302734 0.0224525 0.999571 2.24525e-05 1000 0.999593 1.02202 -0.000179559 -0.00161838 9995.93 0 0 0 
0.00195312 0.306641 0.0166237 0.999579 1.66237e-05 1000 0.999596 1.0162 -0.000214801 -0.00235873 9995.96 0 0 0 
0.00195312 0.310547 0.0117351 0.999586 1.17351e-05 1000 0.999598 1.01132 -0.000288684 -0.00295945 9995.98 0 0 0 
0.00195312 0.314453 0.0078311 0.999592 7.8311e-06 1000 0.9996 1.00742 -0.000369415 -0.00337728 9996 0 0 8.62928e-05 
0.00195312 0.318359 0.00493504 0.999597 4.93505e-06 1000 0.999602 1.00453 -0.000437554 -0.00361918 9996.02 0 0 8.62928e-05 
0.00195312 0.322266 0.0029976 0.9996 2.9976e-06 1000 0.999603 1.0026 -0.000482718 -0.00372188 9996.03 0 0 0 
0.00195312 0.326172 0.00188626 0.999603 1.88626e-06 1000 0.999605 1.00149 -0.000501087 -0.0037366 9996.05 0 0 0 
0.00195312 0.330078 0.00139808 0.999605 1.39808e-06 1000 0.999606 1.001 -0.000494966 -0.00371563 9996.06 0 0 0 
0.00195312 0.333984 0.00127629 0.999606 1.27629e-06 1000 0.999607 1.00088 -0.000471644 -0.00370111 9996.07 0 0 0 
0.00195312 0.337891 0.00123352 0.999607 1.23353e-06 1000 0.999608 1.00084 -0.000440575 -0.00371811 9996.08 0 0 0 
0.00195312 0.341797 0.00119089 0.999608 1.19089e-06 1000 0.999609 1.0008 -0.000410269 -0.00377407 9996.09 0 0 0 
0.00195312 0.345703 0.00114753 0.999609 1.14753e-06 1000 0.99961 1.00076 -0.000386356 -0.00386266 9996.1 0 0 0 
0.00195312 0.349609 0.00110501 0.99961 1.10501e-06 1000 0.999611 1.00071 -0.000371182 -0.00396965 9996.11 0 -0.00107201 0 
0.00195312 0.353516 0.00106663 0.99961 1.06663e-06 1000 0.999611 1.00068 -0.000364444 -0.00407836 9996.11 0 0.0009279 0 
0.00195312 0.357422 0.00103614 0.99961 1.03614e-06 1000 0.999612 1.00065 -0.000364244 -0.00417378 9996.12 0 0 0 
0.00195312 0.361328 0.00101611 0.999611 1.01611e-06 1000 0.999612 1.00063 -0.000368063 -0.00424493 9996.12 0 0 0 
0.00195312 0.365234 0.00100654 0.999611 1.00654e-06 1000 0.999612 1.00062 -0.000373421 -0.00428587 9996.12 0 0 0 
0.00195312 0.369141 0.00100399 0.999611 1.00399e-06 1000 0.999612 1.00061 -0.00037826 -0.00429551 9996.12 0 0 0 
0.00195312 0.373047 0.00100316 0.99961 1.00316e-06 1000 0.999611 1.00061 -0.000381139 -0.00427683 9996.11 0 0 0 
0.00195312 0.376953 0.00100245 0.99961 1.00245e-06 1000 0.999611 1.00061 -0.000381328 -0.00423552 9996.11 0 0 0 
0.00195312 0.380859 0.00100177 0.99961 1.00177e-06 1000 0.999611 1.00061 -0.000378801 -0.00417844 9996.11 0 0 0 
0.00195312 0.384766 0.0010011 0.999609 1.0011e-06 1000 0.99961 1.00061 -0.000374109 -0.00411216 9996.1 0 0 0 
0.00195312 0.388672 0.00100047 0.999608 1.00047e-06 1000 0.999609 1.00061 -0.000368152 -0.00404184 9996.09 0 0 0 
0.00195312 0.392578 0.000999927 0.999607 9.99928e-07 1000 0.999608 1.00061 -0.000361902 -0.00397058 9996.08 0 0 0 
0.00195312 0.396484 0.000999527 0.999607 9.99527e-07 1000 0.999608 1.00061 -0.000356174 -0.00389928 9996.08 0 0 0 
0.00195312 0.400391 0.000999288 0.999606 9.99288e-07 1000 0.999607 1.0006 -0.000351478 -0.00382701 9996.07 0 0 0 
0.00195312 0.404297 0.000999201 0.999604 9.99201e-07 1000 0.999605 1.0006 -0.000347988 -0.00375175 9996.05 0 0 0 
0.00195312 0.408203 0.000999233 0.999603 9.99234e-07 1000 0.999604 1.0006 -0.000345592 -0.00367106 9996.04 0 0 0 
0.00195312 0.412109 0.000999337 0.999602 9.99337e-07 1000 0.999603 1.0006 -0.000344009 -0.00358273 9996.03 0 0 0 
0.00195312 0.416016 0.000999464 0.999601 9.99465e-07 1000 0.999602 1.0006 -0.000342902 -0.00348512 9996.02 0 0 -0.00116655 
0.00195312 0.419922 0.000999577 0.999599 9.99578e-07 1000 0.9996 1.0006 -0.000341968 -0.00337735 9996 0 0 -0.00116655 
0.00195312 0.423828 0.000999655 0.999598 9.99656e-07 1000 0.999599 1.0006 -0.00034099 -0.00325922 9995.99 0 0 0 
0.00195312 0.427734 0.000999691 0.999596 9.99692e-07 1000 0.999597 1.0006 -0.000339846 -0.00313115 9995.97 0 0 0 
0.00195312 0.431641 0.000999691 0.999594 9.99692e-07 1000 0.999595 1.00059 -0.000338488 -0.00299393 9995.95 0 0 0 
0.00195312 0.435547 0.000999669 0.999592 9.99669e-07 1000 0.999593 1.00059 -0.000336922 -0.00284864 9995.93 0 0 0 
0.00195312 0.439453 0.000999638 0.99959 9.99639e-07 1000 0.999591 1.00059 -0.000335181 -0.00269638 9995.91 0 0 0 
0.00195312 0.443359 0.000999614 0.999588 9.99615e-07 1000 0.999589 1.00059 -0.000333321 -0.00253844 9995.89 0 0 0.00282992 
0.00195312 0.447266 0.000999606 0.999586 9.99606e-07 1000 0.999587 1.00059 -0.000331417 -0.00237581 9995.87 0 0 0.00282992 
0.00195312 0.451172 0.000999617 0.999584 9.99617e-07 1000 0.999585 1.00058 -0.000329561 -0.00220986 9995.85 0 0 0 
0.00195312 0.455078 0.000999645 0.999582 9.99645e-07 1000 0.999583 1.00058 -0.000327858 -0.00204099 9995.83 0 0 0 
0.00195312 0.458984 0.000999683 0.99958 9.99683e-07 1000 0.999581 1.00058 -0.000326414 -0.00187075 9995.81 0 0 0 
0.00195312 0.462891 0.00099972 0.999578 9.99721e-07 1000 0.999579 1.00058 -0.000325311 -0.00169798 9995.79 0 0 0 
0.00195312 0.466797 0.000999746 0.999575 9.99746e-07 1000 0.999576 1.00058 -0.000324592 -0.00152551 9995.76 0 0 0 
0.00195312 0.470703 0.000999749 0.999573 9.99749e-07 1000 0.999574 1.00057 -0.000324242 -0.00134873 9995.74 0 0 -0.000312736 
0.00195312 0.474609 0.000999722 0.999571 9.99722e-07 1000 0.999572 1.00057 -0.000324187 -0.0011756 9995.72 0 0 -0.000312736 
0.00195312 0.478516 0.000999663 0.999568 9.99663e-07 1000 0.999569 1.00057 -0.000324314 -0.000992662 9995.69 0 0 0 
0.00195312 0.482422 0.000999576 0.999566 9.99576e-07 1000 0.999567 1.00057 -0.000324497 -0.000824311 9995.67 0 0 0 
0.00195312 0.486328 0.000999471 0.999564 9.99472e-07 1000 0.999565 1.00056 -0.000324643 -0.000631418 9995.65 0 0 0 
0.00195312 0.490234 0.000999363 0.999561 9.99364e-07 1000 0.999562 1.00056 -0.000324723 -0.000489852 9995.62 0 0 0 
0.00195312 0.494141 0.000999274 0.999559 9.99274e-07 1000 0.99956 1.00056 -0.000324746 -0.000279142 9995.6 0 0 0 
0.00195312 0.498047 0.000999222 0.999556 9.99223e-07 1000 0.999557 1.00056 -0.000324746 -0.000267639 9995.57 0 0 0 
0.00585938 0.00195312 1000.12 9.2624e-07 0.999999 1000.12 1.11867 1000.12 -0.000898194 5.64156e-05 11186.7 0 0 0 
0.00585938 0.00585938 1000.11 9.39385e-07 0.999999 1000.12 1.11533 1000.11 -0.000889229 0.000686279 11153.3 0 0 0 
0.00585938 0.00976562 1000.11 9.8202e-07 0.999999 1000.11 1.11343 1000.11 -0.000875341 0.00111208 11134.3 0 0 0 
0.00585938 0.0136719 1000.11 1.0274e-06 0.999999 1000.11 1.11079 1000.11 -0.000861686 0.00159348 11107.9 0 0 0 
0.00585938 0.0175781 1000.11 1.04418e-06 0.999999 1000.11 1.10857 1000.11 -0.000851102 0.00201799 11085.7 0 0 0 
0.00585938 0.0214844 1000.11 1.0382e-06 0.999999 1000.11 1.10612 1000.11 -0.000844116 0.00246059 11061.2 0 0 0 
0.00585938 0.0253906 1000.1 1.02894e-06 0.999999 1000.1 1.10382 1000.1 -0.000840122 0.00288454 11038.2 0 0 0 
0.00585938 0.0292969 1000.1 1.01978e-06 0.999999 1000.1 1.10145 1000.1 -0.000838449 0.00331524 11014.5 0 0 0 
0.00585938 0.0332031 1000.1 1.01149e-06 0.999999 1000.1 1.09915 1000.1 -0.000838696 0.00374094 10991.5 0 0 0 
0.00585938 0.0371094 1000.1 1.00463e-06 0.999999 1000.1 1.09683 1000.1 -0.000840649 0.00417081 10968.3 0 0 0 
0.00585938 0.0410156 1000.09 9.99572e-07 0.999999 1000.09 1.09454 1000.09 -0.000844054 0.00460147 10945.4 0 0 0 
0.00585938 0.0449219 1000.09 9.96434e-07 0.999999 1000.09 1.09225 1000.09 -0.000848499 0.00503649 10922.5 0 0 0 
0.00585938 0.0488281 1000.09 9.95041e-07 0.999999 1000.09 1.08998 1000.09 -0.000853452 0.0054749 10899.8 0 0 0 
0.00585938 0.0527344 1000.09 9.94992e-07 0.999999 1000.09 1.08772 1000.09 -0.000858409 0.00591783 10877.2 0 0 0 
0.00585938 0.0566406 1000.08 9.958e-07 0.999999 1000.09 1.08547 1000.08 -0.000863045 0.0063647 10854.7 0 0 0 
0.00585938 0.0605469 1000.08 9.97015e-07 0.999999 1000.08 1.08322 1000.08 -0.000867311 0.00681566 10832.2 0 0 0 
0.00585938 0.0644531 1000.08 9.98309e-07 0.999999 1000.08 1.08099 1000.08 -0.00087141 0.00727044 10809.9 0 0 0 
0.00585938 0.0683594 1000.08 9.99489e-07 0.999999 1000.08 1.07876 1000.08 -0.00087569 0.00772921 10787.6 0 0 0 
0.00585938 0.0722656 1000.08 1.00048e-06 0.999999 1000.08 1.07655 1000.08 -0.000880499 0.00819222 10765.5 0 0 0 
0.00585938 0.0761719 1000.07 1.00128e-06 0.999999 1000.07 1.07434 1000.07 -0.000886041 0.00866001 10743.4 0 0 0 
0.00585938 0.0800781 1000.07 1.00195e-06 0.999999 1000.07 1.07215 1000.07 -0.000892304 0.00913308 10721.5 0 0 0 
0.00585938 0.0839844 1000.07 1.00253e-06 0.999999 1000.07 1.06996 1000.07 -0.000899046 0.00961193 10699.6 0 0 0 
0.00585938 0.0878906 1000.07 1.00309e-06 0.999999 1000.07 1.06779 1000.07 -0.000905869 0.0100968 10677.9 0 0 0 
0.00585938 0.0917969 1000.06 1.00367e-06 0.999999 1000.07 1.06562 1000.06 -0.000912321 0.0105876 10656.2 0 0 0 
0.00585938 0.0957031 1000.06 1.00429e-06 0.999999 1000.06 1.06346 1000.06 -0.000918035 0.0110842 10634.6 0 0 0 
0.00585938 0.0996094 1000.06 1.00506e-06 0.999999 1000.06 1.06132 1000.06 -0.000922844 0.011586 10613.2 0 0 0 
0.00585938 0.103516 1000.06 1.00626e-06 0.999999 1000.06 1.05918 1000.06 -0.000926872 0.0120926 10591.8 0 0 0 
0.00585938 0.107422 1000.06 1.00885e-06 0.999999 1000.06 1.05706 1000.06 -0.000930573 0.0126037 10570.6 0 0 0 
0.00585938 0.111328 1000.05 1.02058e-06 0.999999 1000.05 1.05494 1000.05 -0.000934705 0.0131194 10549.4 0 0 0 
0.00585938 0.115234 1000.05 1.06001e-06 0.999999 1000.05 1.05284 1000.05 -0.000940222 0.0136403 10528.4 0 0 0 
0.00585938 0.119141 1000.05 1.13716e-06 0.999999 1000.05 1.05075 1000.05 -0.000948081 0.0141675 10507.5 0 0 0 
0.00585938 0.123047 1000.05 1.25134e-06 0.999999 1000.05 1.04866 1000.05 -0.000958956 0.0147029 10486.6 0 0 0 
0.00585938 0.126953 1000.05 1.39644e-06 0.999999 1000.05 1.04659 1000.05 -0.000972884 0.0152483 10465.9 0 0 0 
0.00585938 0.130859 1000.04 1.57193e-06 0.999998 1000.04 1.04452 1000.04 -0.000988934 0.0158054 10445.2 0 0 0 
0.00585938 0.134766 1000.04 1.80354e-06 0.999998 1000.04 1.04247 1000.04 -0.00100499 0.0163748 10424.7 0 0 0 
0.00585938 0.138672 1000.04 2.20247e-06 0.999998 1000.04 1.04042 1000.04 -0.00101779 0.0169555 10404.2 0 0 0 
0.00585938 0.142578 1000.03 3.5465e-06 0.999997 1000.04 1.03838 1000.03 -0.00102338 0.0175442 10383.8 0 0 0.000694667 
0.00585938 0.146484 1000.03 7.48728e-06 0.999993 1000.04 1.03635 1000.03 -0.00101799 0.0181351 10363.5 0 0 0.000694667 
0.00585938 0.150391 1000.02 1.49751e-05 0.999986 1000.03 1.03433 1000.02 -0.000999128 0.0187204 10343.3 0 0 0 
0.00585938 0.154297 1000.01 2.61452e-05 0.999975 1000.03 1.03232 1000.01 -0.000966723 0.0192913 10323.2 0 0 0 
0.00585938 0.158203 999.991 4.05671e-05 0.999961 1000.03 1.03031 999.991 -0.000923713 0.0198401 10303.1 0 0 0 
0.00585938 0.162109 999.972 5.76759e-05 0.999944 1000.03 1.02831 999.972 -0.000875824 0.0203619 10283.1 0 0 0 
0.00585938 0.166016 999.951 7.74304e-05 0.999925 1000.03 1.02631 999.951 -0.000830342 0.0208555 10263.1 0 0 0 
0.00585938 0.169922 999.925 0.000101251 0.999901 1000.02 1.02432 999.926 -0.000794114 0.0213243 10243.2 0 0 0 
0.00585938 0.173828 999.892 0.000133396 0.99987 1000.02 1.02234 999.892 -0.00077153 0.0217746 10223.4 0 0 0 
0.00585938 0.177734 999.773 0.000252709 0.999752 1000.02 1.02037 999.773 -0.000763922 0.0222142 10203.7 0 0 0 
0.00585938 0.181641 999.314 0.000717723 0.999295 1000.02 1.0184 999.314 -0.000771832 0.022642 10184 0 0 0 
0.00585938 0.185547 998.337 0.00170702 0.998321 1000.02 1.01644 998.339 -0.000798338 0.0230462 10164.4 0 0 0 
0.00585938 0.189453 996.805 0.00325598 0.996791 1000.01 1.01449 996.808 -0.000848463 0.0234147 10144.9 0 0 0 
0.00585938 0.193359 994.806 0.00527231 0.994793 1000.01 1.01257 994.811 -0.000925649 0.0237424 10125.7 0 0 0 
0.00585938 0.197266 992.501 0.00758989 0.99249 1000.01 1.01068 992.508 -0.00102965 0.0240379 10106.8 0 0 0 
0.00585938 0.201172 990.015 0.010082 0.990006 1000.01 1.00882 990.025 -0.00115703 0.0243213 10088.2 0 0 0 
0.00585938 0.205078 987.236 0.0128608 0.987229 1000.01 1.00701 987.248 -0.00130208 0.0246175 10070.1 0 0 0 
0.00585938 0.208984 983.333 0.0167601 0.983327 1000.01 1.00525 983.349 -0.00145588 0.0249361 10052.5 0 0 0 
0.00585938 0.212891 974.804 0.0252899 0.9748 1000 1.00357 974.829 -0.00160476 0.0252291 10035.7 0 0 0.349956 
0.00585938 0.216797 954.514 0.0455779 0.954513 1000 1.00199 954.56 -0.00172959 0.0253203 10019.9 0 0 0.35 
0.00585938 0.220703 906.269 0.0937847 0.906268 1000 1.00056 906.362 -0.00180337 0.0249014 10005.6 0 0 0.35 
0.00585938 0.224609 769.764 0.230095 0.769764 999.999 0.999389 769.994 -0.00179122 0.0232623 9993.89 0 0.0013045 0.35 
0.00585938 0.228516 479.535 0.519875 0.479535 999.999 0.998867 480.054 -0.00166093 0.0198074 9988.67 0 -0.00155295 0.35 
0.00585938 0.232422 210.125 0.789015 0.210125 999.999 0.998911 210.914 -0.00140077 0.0156321 9989.11 0 -0.00105183 0.35 
0.00585938 0.236328 93.8089 0.905328 0.093809 999.999 0.999048 94.7142 -0.0010107 0.0114516 9990.48 0 0 0.35 
0.00585938 0.240234 51.1258 0.94809 0.0511258 999.999 0.999173 52.0738 -0.000517338 0.00790043 9991.73 0 0 0.35 
0.00585938 0.244141 31.9575 0.967339 0.0319575 999.999 0.999273 32.9248 -4.67063e-07 0.00476585 9992.73 0 0 0.328022 
0.00585938 0.248047 22.5738 0.976792 0.0225738 999.999 0.999351 23.5506 0.000382569 0.00188278 9993.51 0 0 0 
0.00585938 0.251953 16.9533 0.982471 0.0169533 999.999 0.999414 17.9358 0.00044292 -0.000763835 9994.14 0 0 0 
0.00585938 0.255859 12.4261 0.987046 0.0124262 999.999 0.999466 13.4132 7.39407e-05 -0.00297673 9994.66 0 0 0 
0.00585938 0.259766 8.5094 0.991 0.00850941 1000 0.999505 9.5004 -0.000659345 -0.00454555 9995.05 0 0 0 
0.00585938 0.263672 5.29995 0.994235 0.00529995 1000 0.999533 6.29419 -0.00159926 -0.00534905 9995.33 0 0 0 
0.00585938 0.267578 2.92749 0.996625 0.00292749 1000 0.999551 3.92411 -0.00259142 -0.00536385 9995.51 0 -0.00133574 0 
0.00585938 0.271484 1.37888 0.998184 0.00137888 1000 0.999562 2.37707 -0.00346117 -0.00468955 9995.62 0 0 0 
0.00585938 0.275391 0.520101 0.99905 0.000520102 1000 0.99957 1.51915 -0.00400091 -0.00351849 9995.7 0 0 0 
0.00585938 0.279297 0.157357 0.999417 0.000157357 1000 0.999574 1.15677 -0.00401936 -0.00215694 9995.74 0 0 0 
0.00585938 0.283203 0.0762709 0.999502 7.6271e-05 1000 0.999578 1.07577 -0.00351454 -0.00096498 9995.78 0 0 0 
0.00585938 0.287109 0.0593339 0.999522 5.93339e-05 1000 0.999582 1.05886 -0.00269563 -0.000214298 9995.82 0 0 0 
0.00585938 0.291016 0.0469429 0.999538 4.69429e-05 1000 0.999585 1.04648 -0.0018163 -4.14448e-07 9995.85 0 0 0 
0.00585938 0.294922 0.0372485 0.999551 3.72485e-05 1000 0.999588 1.0368 -0.00110122 -0.000282364 9995.88 0 0 0 
0.00585938 0.298828 0.0292594 0.999561 2.92594e-05 1000 0.999591 1.02882 -0.000684141 -0.000896018 9995.91 0 0 0 
0.00585938 0.302734 0.0224573 0.999571 2.24573e-05 1000 0.999593 1.02203 -0.000568581 -0.00163773 9995.93 0 0 0 
0.00585938 0.306641 0.0166258 0.999579 1.66258e-05 1000 0.999596 1.0162 -0.000668182 -0.00234798 9995.96 0 0 0 
0.00585938 0.310547 0.0117355 0.999586 1.17355e-05 1000 0.999598 1.01132 -0.000878205 -0.00293281 9995.98 0 0 0 
0.00585938 0.314453 0.00783065 0.999592 7.83066e-06 1000 0.9996 1.00742 -0.00111254 -0.00335087 9996 0 0 8.62928e-05 
0.00585938 0.318359 0.00493453 0.999597 4.93453e-06 1000 0.999602 1.00453 -0.00131352 -0.0036031 9996.02 0 0 8.62928e-05 
0.00585938 0.322266 0.0029974 0.999601 2.99741e-06 1000 0.999604 1.0026 -0.00144808 -0.00371998 9996.04 0 0 0 
0.00585938 0.326172 0.00188634 0.999603 1.88634e-06 1000 0.999605 1.00149 -0.00150366 -0.00374841 9996.05 0 0 0 
0.00585938 0.330078 0.00139815 0.999605 1.39815e-06 1000 0.999606 1.001 -0.00148673 -0.00373788 9996.06 0 0 0 
0.00585938 0.333984 0.00127629 0.999606 1.2763e-06 1000 0.999608 1.00088 -0.0014187 -0.00372895 9996.08 0 0 0 
0.00585938 0.337891 0.00123353 0.999607 1.23353e-06 1000 0.999609 1.00084 -0.00132734 -0.00374655 9996.09 0 0 0 
0.00585938 0.341797 0.00119092 0.999608 1.19092e-06 1000 0.99961 1.0008 -0.00123771 -0.00379921 9996.1 0 0 0 
0.00585938 0.345703 0.00114758 0.999609 1.14758e-06 1000 0.99961 1.00076 -0.00116649 -0.0038823 9996.1 0 0 0 
0.00585938 0.349609 0.00110509 0.99961 1.10509e-06 1000 0.999611 1.00071 -0.00112067 -0.00398327 9996.11 0 0 0 
0.00585938 0.353516 0.00106674 0.99961 1.06674e-06 1000 0.999611 1.00068 -0.00109948 -0.00408675 9996.11 0 0 0 
0.00585938 0.357422 0.00103625 0.999611 1.03625e-06 1000 0.999612 1.00065 -0.00109748 -0.00417848 9996.12 0 0 0 
0.00585938 0.361328 0.00101619 0.999611 1.01619e-06 1000 0.999612 1.00063 -0.00110743 -0.0042477 9996.12 0 0 0 
0.00585938 0.365234 0.00100658 0.999611 1.00658e-06 1000 0.999612 1.00062 -0.00112218 -0.00428825 9996.12 0 0 0 
0.00585938 0.369141 0.00100402 0.999611 1.00402e-06 1000 0.999612 1.00061 -0.00113572 -0.00429861 9996.12 0 0 0 
0.00585938 0.373047 0.00100318 0.999611 1.00318e-06 1000 0.999612 1.00061 -0.00114374 -0.00428126 9996.12 0 0 0 
0.00585938 0.376953 0.00100246 0.99961 1.00246e-06 1000 0.999611 1.00061 -0.00114402 -0.00424144 9996.11 0 0 0 
0.00585938 0.380859 0.00100178 0.99961 1.00178e-06 1000 0.999611 1.00061 -0.00113637 -0.00418565 9996.11 0 0 0 
0.00585938 0.384766 0.0010011 0.999609 1.0011e-06 1000 0.99961 1.00061 -0.00112233 -0.00412026 9996.1 0 0 0 
0.00585938 0.388672 0.00100047 0.999608 1.00047e-06 1000 0.999609 1.00061 -0.00110448 -0.00405034 9996.09 0 0 0 
0.00585938 0.392578 0.000999928 0.999608 9.99929e-07 1000 0.999609 1.00061 -0.00108562 -0.00397898 9996.09 0 0 0 
0.00585938 0.396484 0.000999527 0.999607 9.99528e-07 1000 0.999608 1.00061 -0.00106815 -0.00390717 9996.08 0 0 0 
0.00585938 0.400391 0.000999288 0.999606 9.99288e-07 1000 0.999607 1.0006 -0.00105357 -0.00383416 9996.07 0 0 0 
0.00585938 0.404297 0.000999202 0.999605 9.99202e-07 1000 0.999606 1.0006 -0.00104247 -0.00375808 9996.06 0 0 0 
0.00585938 0.408203 0.000999235 0.999603 9.99235e-07 1000 0.999604 1.0006 -0.0010346 -0.00367667 9996.04 0 0 0 
0.00585938 0.412109 0.000999339 0.999602 9.9934e-07 1000 0.999603 1.0006 -0.00102922 -0.00358779 9996.03 0 0 0 
0.00585938 0.416016 0.000999467 0.999601 9.99467e-07 1000 0.999602 1.0006 -0.00102536 -0.00348983 9996.02 0 0 -0.00108942 
0.00585938 0.419922 0.000999579 0.999599 9.9958e-07 1000 0.9996 1.0006 -0.00102213 -0.00338186 9996 0 0 -0.00108942 
0.00585938 0.423828 0.000999656 0.999598 9.99657e-07 1000 0.999599 1.0006 -0.00101883 -0.00326364 9995.99 0 0 0 
0.00585938 0.427734 0.000999692 0.999596 9.99692e-07 1000 0.999597 1.0006 -0.00101503 -0.0031355 9995.97 0 0 0 
0.00585938 0.431641 0.000999691 0.999594 9.99692e-07 1000 0.999595 1.00059 -0.00101053 -0.00299819 9995.95 0 0 0 
0.00585938 0.435547 0.000999669 0.999592 9.99669e-07 1000 0.999593 1.00059 -0.00100535 -0.00285276 9995.93 0 0 0 
0.00585938 0.439453 0.000999638 0.999591 9.99639e-07 1000 0.999592 1.00059 -0.000999598 -0.00270031 9995.92 0 0 0 
0.00585938 0.443359 0.000999615 0.999589 9.99615e-07 1000 0.99959 1.00059 -0.000993494 -0.00254216 9995.9 0 0 0.00218113 
0.00585938 0.447266 0.000999606 0.999586 9.99607e-07 1000 0.999587 1.00059 -0.000987309 -0.00237931 9995.87 0 0 0.00218113 
0.00585938 0.451172 0.000999618 0.999584 9.99618e-07 1000 0.999585 1.00058 -0.000981352 -0.00221313 9995.85 0 0 0 
0.00585938 0.455078 0.000999646 0.999582 9.99646e-07 1000 0.999583 1.00058 -0.000975944 -0.00204399 9995.83 0 0 0 
0.00585938 0.458984 0.000999684 0.99958 9.99684e-07 1000 0.999581 1.00058 -0.00097138 -0.00187347 9995.81 0 0 0 
0.00585938 0.462891 0.000999721 0.999578 9.99722e-07 1000 0.999579 1.00058 -0.000967881 -0.00170037 9995.79 0 0 0 
0.00585938 0.466797 0.000999747 0.999575 9.99747e-07 1000 0.999576 1.00058 -0.000965541 -0.00152754 9995.76 0 0 0 
0.00585938 0.470703 0.000999749 0.999573 9.9975e-07 1000 0.999574 1.00057 -0.000964292 -0.00135038 9995.74 0 0 -0.000312736 
0.00585938 0.474609 0.000999722 0.999571 9.99723e-07 1000 0.999572 1.00057 -0.000963907 -0.00117687 9995.72 0 0 -0.000312736 
0.00585938 0.478516 0.000999664 0.999568 9.99664e-07 1000 0.999569 1.00057 -0.000964043 -0.000993577 9995.69 0 0 0 
0.00585938 0.482422 0.000999577 0.999566 9.99577e-07 1000 0.999567 1.00057 -0.000964346 -0.000824929 9995.67 0 0 0 
0.00585938 0.486328 0.000999472 0.999564 9.99472e-07 1000 0.999565 1.00056 -0.000964555 -0.000631804 9995.65 0 0 0 
0.00585938 0.490234 0.000999364 0.999561 9.99365e-07 1000 0.999562 1.00056 -0.0009646 -0.000490087 9995.62 0 0 0.000598235 
0.00585938 0.494141 0.000999275 0.999559 9.99275e-07 1000 0.99956 1.00056 -0.00096453 -0.000279226 9995.6 0 0 0.000598235 
0.00585938 0.498047 0.000999223 0.999556 9.99223e-07 1000 0.999557 1.00056 -0.000964459 -0.000267684 9995.57 0 0 0 
0.00976562 0.00195312 1000.12 9.26377e-07 0.999999 1000.12 1.11869 1000.12 -0.00149138 5.3171e-05 11186.9 0 0 0 
0.00976562 0.00585938 1000.11 9.39548e-07 0.999999 1000.12 1.11535 1000.11 -0.00147751 0.000677636 11153.5 0 0 0 
0.00976562 0.00976562 1000.11 9.82258e-07 0.999999 1000.11 1.11345 1000.11 -0.0014562 0.00110033 11134.5 0 0 0 
0.00976562 0.0136719 1000.11 1.0277e-06 0.999999 1000.11 1.11081 1000.11 -0.00143503 0.00158071 11108.1 0 0 0 
0.00976562 0.0175781 1000.11 1.04452e-06 0.999999 1000.11 1.10859 1000.11 -0.00141819 0.00200562 11085.9 0 0 0 
0.00976562 0.0214844 1000.11 1.03851e-06 0.999999 1000.11 1.10614 1000.11 -0.00140667 0.00244911 11061.4 0 0 0 
0.00976562 0.0253906 1000.1 1.02923e-06 0.999999 1000.1 1.10384 1000.1 -0.00139977 0.00287381 11038.4 0 0 0 
0.00976562 0.0292969 1000.1 1.02005e-06 0.999999 1000.1 1.10147 1000.1 -0.00139666 0.00330489 11014.7 0 0 0 