TITLE=FvSolution
VARIABLES=X Y RHO1Z1 RHO2Z2 Z1 RHO1 RHO2 RHO U V PRE theta lambdaX lambdaY 
ZONE T=TA, I=128, J=128, DATAPACKING = POINT
0.00195312 0.00195312 1000.12 8.1261e-07 0.999999 1000.12 1.12149 1000.12 -0.000277301 0.000103989 11214.9 0 0 0 
0.00195312 0.00585938 1000.12 8.43565e-07 0.999999 1000.12 1.11822 1000.12 -0.000275354 0.000828627 11182.2 0 0 0 
0.00195312 0.00976562 1000.12 8.93179e-07 0.999999 1000.12 1.11629 1000.12 -0.000272394 0.00134857 11162.9 0 0 0 
0.00195312 0.0136719 1000.11 9.44556e-07 0.999999 1000.11 1.11359 1000.11 -0.000269599 0.00193001 11135.9 0 0 0 
0.00195312 0.0175781 1000.11 9.85682e-07 0.999999 1000.11 1.11132 1000.11 -0.000267306 0.00245528 11113.2 0 0 0 
0.00195312 0.0214844 1000.11 1.01358e-06 0.999999 1000.11 1.1088 1000.11 -0.000265191 0.0030004 11088 0 0 0 
0.00195312 0.0253906 1000.11 1.0336e-06 0.999999 1000.11 1.10643 1000.11 -0.000262803 0.00352506 11064.3 0 0 0 
0.00195312 0.0292969 1000.1 1.05633e-06 0.999999 1000.1 1.10397 1000.1 -0.000260015 0.00405306 11039.7 0 0 0 
0.00195312 0.0332031 1000.1 1.09225e-06 0.999999 1000.1 1.10157 1000.1 -0.00025721 0.00457022 11015.7 0 0 0 
0.00195312 0.0371094 1000.1 1.14532e-06 0.999999 1000.1 1.09914 1000.1 -0.000255207 0.00508544 10991.4 0 0 0 
0.00195312 0.0410156 1000.1 1.20762e-06 0.999999 1000.1 1.09673 1000.1 -0.000254991 0.00559662 10967.3 0 0 0 
0.00195312 0.0449219 1000.09 1.25738e-06 0.999999 1000.09 1.09432 1000.09 -0.000257321 0.00611087 10943.2 0 0 0 
0.00195312 0.0488281 1000.09 1.26301e-06 0.999999 1000.09 1.09192 1000.09 -0.000262342 0.00663192 10919.2 0 0 0 
0.00195312 0.0527344 1000.09 1.19341e-06 0.999999 1000.09 1.08952 1000.09 -0.000269336 0.00716545 10895.2 0 0 0 
0.00195312 0.0566406 1000.09 1.03298e-06 0.999999 1000.09 1.08712 1000.09 -0.000276745 0.00771342 10871.2 0 0 0 
0.00195312 0.0605469 1000.08 7.96017e-07 0.999999 1000.08 1.08473 1000.08 -0.000282518 0.00827497 10847.3 0 0 0 
0.00195312 0.0644531 1000.08 5.34398e-07 1 1000.08 1.08234 1000.08 -0.000284727 0.00884469 10823.4 0 0 0 
0.00195312 0.0683594 1000.08 3.32488e-07 1 1000.08 1.07995 1000.08 -0.000282281 0.00941435 10799.5 0 0 0 
0.00195312 0.0722656 1000.08 2.87512e-07 1 1000.08 1.07757 1000.08 -0.000275466 0.00997469 10775.7 0 0 0 
0.00195312 0.0761719 1000.07 4.78811e-07 1 1000.08 1.0752 1000.07 -0.000266095 0.0105187 10752 0 0 0 
0.00195312 0.0800781 1000.07 9.3485e-07 0.999999 1000.07 1.07283 1000.07 -0.000257124 0.011044 10728.3 0 0 0 
0.00195312 0.0839844 1000.07 1.60932e-06 0.999998 1000.07 1.07046 1000.07 -0.000251802 0.0115549 10704.6 0 0 0 
0.00195312 0.0878906 1000.07 2.37614e-06 0.999998 1000.07 1.06809 1000.07 -0.000252623 0.012061 10680.9 0 0 0 
0.00195312 0.0917969 1000.06 3.04807e-06 0.999997 1000.07 1.06573 1000.06 -0.000260483 0.012576 10657.3 0 0 0 
0.00195312 0.0957031 1000.06 3.4174e-06 0.999997 1000.06 1.06337 1000.06 -0.000274369 0.0131127 10633.7 0 0 0 
0.00195312 0.0996094 1000.06 3.31293e-06 0.999997 1000.06 1.06102 1000.06 -0.000291689 0.0136817 10610.2 0 0 0 
0.00195312 0.103516 1000.06 2.66768e-06 0.999997 1000.06 1.05867 1000.06 -0.000308933 0.0142846 10586.7 0 0 0 
0.00195312 0.107422 1000.05 1.59446e-06 0.999998 1000.06 1.05637 1000.05 -0.000322322 0.0149166 10563.7 0 0 0 
0.00195312 0.111328 1000.05 4.70229e-07 1 1000.05 1.05426 1000.05 -0.000328329 0.0155445 10542.6 0 0 0 
0.00195312 0.115234 1000.05 2.99885e-08 1 1000.05 1.0532 1000.05 -0.00032747 0.0161239 10532 1 0 0 
0.00195312 0.119141 1000.05 1.46844e-06 0.999999 1000.05 1.04899 1000.05 -0.000332315 0.0168936 10489.9 0 0 0 
0.00195312 0.123047 1000.04 7.26048e-06 0.999993 1000.05 1.04704 1000.04 -0.000342775 0.01756 10470.4 0 0 0 
0.00195312 0.126953 1000.03 1.77182e-05 0.999983 1000.04 1.04456 1000.03 -0.00035963 0.0182859 10445.6 0 0 0 
0.00195312 0.130859 1000.01 3.12156e-05 0.99997 1000.04 1.04233 1000.01 -0.000380644 0.0190205 10423.3 0 0 0 
0.00195312 0.134766 999.997 4.46155e-05 0.999957 1000.04 1.03996 999.997 -0.000401077 0.0198124 10399.6 0 0 0 
0.00195312 0.138672 999.986 5.39747e-05 0.999948 1000.04 1.03767 999.986 -0.000416122 0.0206313 10376.7 0 0 0 
0.00195312 0.142578 999.982 5.56428e-05 0.999946 1000.04 1.03533 999.982 -0.000422684 0.0214774 10353.3 0 0 0 
0.00195312 0.146484 999.987 4.77059e-05 0.999954 1000.03 1.03303 999.987 -0.000419852 0.0223243 10330.3 0 0 0 
0.00195312 0.150391 1000 3.16821e-05 0.999969 1000.03 1.03072 1000 -0.000408545 0.0231585 10307.2 0 0 0 
0.00195312 0.154297 1000.01 1.42651e-05 0.999986 1000.03 1.02841 1000.01 -0.000390738 0.0239621 10284.1 0 0 0 
0.00195312 0.158203 1000.02 8.924e-06 0.999991 1000.03 1.02611 1000.02 -0.000368741 0.0247262 10261.1 0 0 0 
0.00195312 0.162109 999.987 3.72961e-05 0.999964 1000.02 1.02381 999.987 -0.000344829 0.0254441 10238.1 0 0 0 
0.00195312 0.166016 999.894 0.000130519 0.999872 1000.02 1.0215 999.894 -0.000321269 0.0261153 10215 0 0 0 
0.00195312 0.169922 999.695 0.000330894 0.999675 1000.02 1.01921 999.695 -0.000300546 0.0267438 10192.1 0 0 0 
0.00195312 0.173828 999.334 0.00069439 0.999317 1000.02 1.01691 999.335 -0.000285475 0.0273401 10169.1 0 0 0 
0.00195312 0.177734 998.739 0.00129449 0.998724 1000.01 1.01462 998.74 -0.00027889 0.0279207 10146.2 0 0 0 
0.00195312 0.181641 997.812 0.00222764 0.9978 1000.01 1.01234 997.814 -0.000282911 0.0285086 10123.4 0 0 0 
0.00195312 0.185547 996.425 0.00362112 0.996415 1000.01 1.01007 996.429 -0.000298155 0.029131 10100.7 0 0 0 
0.00195312 0.189453 994.404 0.00564786 0.994396 1000.01 1.00784 994.409 -0.00032339 0.0298168 10078.4 0 0 0 
0.00195312 0.193359 991.492 0.00856183 0.991486 1000.01 1.00564 991.5 -0.000355871 0.0305937 10056.4 0 0 0 
0.00195312 0.197266 987.268 0.0127796 0.987265 1000 1.00349 987.281 -0.000392107 0.0314875 10034.9 0 0 0 
0.00195312 0.201172 980.98 0.0190491 0.980978 1000 1.00143 980.999 -0.00042854 0.0325242 10014.3 0 0 0 
0.00195312 0.205078 971.198 0.0287874 0.971198 999.999 0.999496 971.226 -0.000461794 0.0337358 9994.96 0 0 0 
0.00195312 0.208984 955.106 0.0447903 0.955108 999.998 0.997742 955.151 -0.000488554 0.0351725 9977.42 0 0 0 
0.00195312 0.212891 926.871 0.0728512 0.926875 999.996 0.996254 926.944 -0.000505944 0.0369321 9962.54 0 0 0 
0.00195312 0.216797 874.661 0.124728 0.874665 999.995 0.995153 874.785 -0.000512614 0.0392228 9951.53 0 0 0 
0.00195312 0.220703 785.319 0.213513 0.785323 999.995 0.994581 785.532 -0.00050985 0.0424287 9945.81 0 0 0 
0.00195312 0.224609 659.636 0.338529 0.659639 999.995 0.994617 659.974 -0.000502046 0.04696 9946.17 0 0 0 
0.00195312 0.228516 512.438 0.485214 0.51244 999.995 0.995189 512.923 -0.000494132 0.0528986 9951.89 0 0 0 
0.00195312 0.232422 363.696 0.633814 0.363698 999.996 0.996089 364.33 -0.000491825 0.0598988 9960.89 0 0 0 
0.00195312 0.236328 233.494 0.764216 0.233495 999.997 0.997014 234.259 -0.000500348 0.0674338 9970.14 0 0 0 
0.00195312 0.240234 137.719 0.860367 0.13772 999.998 0.997781 138.58 -0.000519295 0.0747578 9977.81 0 0 0 
0.00195312 0.244141 80.0902 0.918387 0.0800904 999.998 0.998345 81.0086 -0.000545811 0.0813189 9983.45 0 0 0 
0.00195312 0.248047 48.9379 0.949863 0.048938 999.999 0.99874 49.8878 -0.000577233 0.0870504 9987.4 0 0 0 
0.00195312 0.251953 31.4264 0.967625 0.0314265 999.999 0.999021 32.3941 -0.000608646 0.0919756 9990.21 0 0 0 
0.00195312 0.255859 20.9005 0.978338 0.0209005 999.999 0.999222 21.8788 -0.000633412 0.096252 9992.22 0 0 0 
0.00195312 0.259766 14.1788 0.985199 0.0141788 999.999 0.999369 15.164 -0.000642808 0.0999828 9993.69 0 0 0 
0.00195312 0.263672 9.66402 0.989816 0.00966403 999.999 0.999475 10.6538 -0.000625872 0.103259 9994.75 0 0 0 
0.00195312 0.267578 6.52393 0.993032 0.00652394 1000 0.999553 7.51697 -0.000569731 0.106118 9995.53 0 0 0 
0.00195312 0.271484 4.30677 0.995304 0.00430678 1000 0.999609 5.30208 -0.000457986 0.108554 9996.09 0 0 0 
0.00195312 0.275391 2.74824 0.996902 0.00274824 1000 0.99965 3.74514 -0.000267691 0.110505 9996.5 0 0 0 
0.00195312 0.279297 1.6748 0.998004 0.0016748 1000 0.999679 2.67281 1.64647e-05 0.11185 9996.79 0 0 0 
0.00195312 0.283203 0.959875 0.99874 0.000959875 1000 0.9997 1.95862 0.000362678 0.112463 9997 0 0 0 
0.00195312 0.287109 0.506232 0.99921 0.000506232 1000 0.999716 1.50544 0.000719387 0.112296 9997.16 0 0 0 
0.00195312 0.291016 0.238345 0.99949 0.000238345 1000 0.999729 1.23784 0.00104565 0.111383 9997.29 0 0 0 
0.00195312 0.294922 0.0976322 0.999642 9.76322e-05 1000 0.99974 1.09727 0.00130126 0.109834 9997.4 0 0 0 
0.00195312 0.298828 0.0388892 0.999711 3.88892e-05 1000 0.99975 1.0386 0.00146031 0.107828 9997.5 0 0 0 
0.00195312 0.302734 0.0277736 0.999732 2.77736e-05 1000 0.999759 1.02751 0.0015253 0.105563 9997.59 0 0 0 
0.00195312 0.306641 0.0391497 0.99973 3.91497e-05 1000 0.999769 1.03888 0.0015214 0.103205 9997.69 0 0 0 
0.00195312 0.310547 0.0559183 0.999723 5.59183e-05 1000 0.999779 1.05564 0.00148012 0.100858 9997.79 0 0 0 
0.00195312 0.314453 0.0679389 0.999721 6.79389e-05 1000 0.999789 1.06766 0.00142852 0.0985668 9997.89 0 0 0 
0.00195312 0.318359 0.0707888 0.999728 7.07888e-05 1000 0.999799 1.07052 0.00138575 0.0963335 9997.99 0 0 0 
0.00195312 0.322266 0.0643067 0.999745 6.43068e-05 1000 0.999809 1.06405 0.00136077 0.0941285 9998.09 0 0 0 
0.00195312 0.326172 0.051039 0.999768 5.1039e-05 1000 0.999819 1.05081 0.00134918 0.0919215 9998.19 0 0 0 
0.00195312 0.330078 0.0347812 0.999793 3.47812e-05 1000 0.999828 1.03457 0.00133264 0.0896993 9998.28 0 0 0 
0.00195312 0.333984 0.0193713 0.999818 1.93714e-05 1000 0.999838 1.01919 0.0012879 0.0875035 9998.38 0 0 0 
0.00195312 0.337891 0.00779032 0.999839 7.79032e-06 1000 0.999846 1.00763 0.00120691 0.0854084 9998.46 0 0 0 
0.00195312 0.341797 0.00151691 0.999853 1.51691e-06 1000 0.999854 1.00137 0.00111669 0.0835509 9998.54 0 0 0 
0.00195312 0.345703 2.52107e-05 0.999858 2.52107e-08 999.999 0.999858 0.999883 0.00107467 0.0819788 9998.58 1 0 0 
0.00195312 0.349609 0.000318954 0.999873 3.18954e-07 1000 0.999873 1.00019 0.00110362 0.0797274 9998.73 0 0 0 
0.00195312 0.353516 0.0010257 0.999879 1.0257e-06 1000 0.99988 1.0009 0.00116742 0.0777607 9998.8 0 0 0 
0.00195312 0.357422 0.00160486 0.999887 1.60486e-06 1000 0.999889 1.00149 0.00122596 0.0755296 9998.89 0 0 0 
0.00195312 0.361328 0.001947 0.999895 1.947e-06 1000 0.999897 1.00184 0.00125503 0.0732791 9998.97 0 0 0 
0.00195312 0.365234 0.00209941 0.999903 2.09941e-06 1000 0.999905 1.002 0.00124615 0.0709317 9999.05 0 0 0 
0.00195312 0.369141 0.00212367 0.99991 2.12367e-06 1000 0.999912 1.00203 0.00120485 0.068637 9999.12 0 0 0 
0.00195312 0.373047 0.0020516 0.999918 2.0516e-06 1000 0.99992 1.00197 0.00114414 0.066403 9999.2 0 0 0 
0.00195312 0.376953 0.00189324 0.999925 1.89324e-06 1000 0.999927 1.00182 0.00107827 0.064278 9999.27 0 0 0 
0.00195312 0.380859 0.00165879 0.999933 1.65879e-06 1000 0.999934 1.00159 0.00101884 0.0622475 9999.34 0 0 0 
0.00195312 0.384766 0.00137318 0.99994 1.37318e-06 1000 0.999941 1.00131 0.000973431 0.0602989 9999.41 0 0 0 
0.00195312 0.388672 0.00107699 0.999947 1.07699e-06 1000 0.999948 1.00102 0.000945425 0.058397 9999.48 0 0 0 
0.00195312 0.392578 0.000816803 0.999954 8.16803e-07 1000 0.999954 1.00077 0.000934154 0.0565105 9999.54 0 0 0 
0.00195312 0.396484 0.000632025 0.99996 6.32025e-07 1000 0.999961 1.00059 0.000935522 0.0546091 9999.61 0 0 0 
0.00195312 0.400391 0.000544395 0.999966 5.44395e-07 1000 0.999967 1.00051 0.000943373 0.0526754 9999.67 0 0 0 
0.00195312 0.404297 0.000553874 0.999972 5.53874e-07 1000 0.999972 1.00053 0.000951457 0.0507035 9999.72 0 0 0 
0.00195312 0.408203 0.000641246 0.999977 6.41246e-07 1000 0.999978 1.00062 0.00095529 0.0486993 9999.78 0 0 0 
0.00195312 0.412109 0.000775402 0.999982 7.75402e-07 1000 0.999983 1.00076 0.000953093 0.0466749 9999.83 0 0 0 
0.00195312 0.416016 0.000922209 0.999987 9.22209e-07 1000 0.999988 1.00091 0.000945579 0.044643 9999.88 0 0 0 
0.00195312 0.419922 0.0010522 0.999991 1.0522e-06 1000 0.999992 1.00104 0.000934942 0.0426132 9999.92 0 0 0 
0.00195312 0.423828 0.00114544 0.999995 1.14544e-06 1000 0.999997 1.00114 0.000923706 0.0405898 9999.97 0 0 0 
0.00195312 0.427734 0.00119318 0.999999 1.19318e-06 1000 1 1.00119 0.000913899 0.0385724 10000 0 0 0 
0.00195312 0.431641 0.00119689 1 1.19689e-06 1000 1 1.0012 0.000906704 0.0365571 10000 0 0 0 
0.00195312 0.435547 0.00116566 1.00001 1.16566e-06 1000 1.00001 1.00117 0.000902446 0.0345384 10000.1 0 0 0 
0.00195312 0.439453 0.00111282 1.00001 1.11282e-06 1000 1.00001 1.00112 0.00090078 0.0325112 10000.1 0 0 0 
0.00195312 0.443359 0.00105264 1.00001 1.05264e-06 1000 1.00001 1.00107 0.000900924 0.0304715 10000.1 0 0 0 
0.00195312 0.447266 0.000997474 1.00002 9.97474e-07 1000 1.00002 1.00101 0.000901922 0.0284182 10000.2 0 0 0 
0.00195312 0.451172 0.000955976 1.00002 9.55976e-07 1000 1.00002 1.00097 0.000902899 0.0263516 10000.2 0 0 0 
0.00195312 0.455078 0.00093225 1.00002 9.3225e-07 1000 1.00002 1.00095 0.000903273 0.024274 10000.2 0 0 0 
0.00195312 0.458984 0.000926114 1.00002 9.26114e-07 1000 1.00002 1.00095 0.000902851 0.0221873 10000.2 0 0 0 
0.00195312 0.462891 0.000934126 1.00002 9.34126e-07 1000 1.00002 1.00096 0.000901798 0.0200945 10000.2 0 0 0 
0.00195312 0.466797 0.000951047 1.00002 9.51047e-07 1000 1.00002 1.00097 0.000900495 0.0179961 10000.2 0 0 0 
0.00195312 0.470703 0.000971329 1.00002 9.71329e-07 1000 1.00002 1.00099 0.000899362 0.0158953 10000.2 0 0 0 
0.00195312 0.474609 0.000990328 1.00002 9.90328e-07 1000 1.00002 1.00101 0.000898717 0.0137885 10000.2 0 0 0 
0.00195312 0.478516 0.00100504 1.00002 1.00504e-06 1000 1.00002 1.00103 0.000898683 0.0116811 10000.2 0 0 0 
0.00195312 0.482422 0.00101433 1.00002 1.01433e-06 1000 1.00002 1.00104 0.000899165 0.00956197 10000.2 0 0 0 
0.00195312 0.486328 0.00101868 1.00002 1.01868e-06 1000 1.00002 1.00104 0.000899928 0.00744844 10000.2 0 0 0 
0.00195312 0.490234 0.00101961 1.00002 1.01961e-06 1000 1.00002 1.00104 0.000900682 0.00530467 10000.2 0 0 0 
0.00195312 0.494141 0.001019 1.00002 1.019e-06 1000 1.00002 1.00104 0.000901221 0.00317959 10000.2 0 0 0 
0.00195312 0.498047 0.00101839 1.00002 1.01839e-06 1000 1.00002 1.00103 0.000901454 0.000916023 10000.2 0 0 0 
0.00585938 0.00195312 1000.12 8.13362e-07 0.999999 1000.12 1.12136 1000.12 -0.000820036 0.000103061 11213.6 0 0 0 
0.00585938 0.00585938 1000.12 8.44357e-07 0.999999 1000.12 1.11809 1000.12 -0.000814158 0.000826038 11180.9 0 0 0 
0.00585938 0.00976562 1000.12 8.94024e-07 0.999999 1000.12 1.11616 1000.12 -0.000805543 0.00134478 11161.6 0 0 0 
0.00585938 0.0136719 1000.11 9.45448e-07 0.999999 1000.11 1.11346 1000.11 -0.000797391 0.00192547 11134.6 0 0 0 
0.00585938 0.0175781 1000.11 9.86608e-07 0.999999 1000.11 1.11119 1000.11 -0.000790594 0.00245025 11111.9 0 0 0 
0.00585938 0.0214844 1000.11 1.01453e-06 0.999999 1000.11 1.10867 1000.11 -0.00078427 0.0029949 11086.7 0 0 0 
0.00585938 0.0253906 1000.11 1.03458e-06 0.999999 1000.11 1.1063 1000.11 -0.000777182 0.00351911 11063 0 0 0 
0.00585938 0.0292969 1000.1 1.05735e-06 0.999999 1000.1 1.10384 1000.1 -0.000769016 0.00404689 11038.4 0 0 0 
0.00585938 0.0332031 1000.1 1.09331e-06 0.999999 1000.1 1.10144 1000.1 -0.000760897 0.00456429 11014.4 0 0 0 
0.00585938 0.0371094 1000.1 1.14644e-06 0.999999 1000.1 1.09901 1000.1 -0.000755182 0.00508034 10990.1 0 0 0 
0.00585938 0.0410156 1000.1 1.20878e-06 0.999999 1000.1 1.0966 1000.1 -0.000754687 0.00559283 10966 0 0 0 
0.00585938 0.0449219 1000.09 1.25856e-06 0.999999 1000.09 1.09419 1000.09 -0.00076157 0.00610848 10941.9 0 0 0 
0.00585938 0.0488281 1000.09 1.26415e-06 0.999999 1000.09 1.09179 1000.09 -0.000776228 0.00663047 10917.9 0 0 0 
0.00585938 0.0527344 1000.09 1.19446e-06 0.999999 1000.09 1.08939 1000.09 -0.000796575 0.00716396 10893.9 0 0 0 
0.00585938 0.0566406 1000.09 1.03385e-06 0.999999 1000.09 1.08699 1000.09 -0.000818096 0.00771056 10869.9 0 0 0 
0.00585938 0.0605469 1000.08 7.96672e-07 0.999999 1000.08 1.0846 1000.08 -0.000834844 0.00826945 10846 0 0 0 
0.00585938 0.0644531 1000.08 5.34834e-07 1 1000.08 1.08221 1000.08 -0.00084123 0.00883568 10822.1 0 0 0 
0.00585938 0.0683594 1000.08 3.32778e-07 1 1000.08 1.07983 1000.08 -0.000834094 0.0094018 10798.3 0 0 0 
0.00585938 0.0722656 1000.08 2.87809e-07 1 1000.08 1.07745 1000.08 -0.000814307 0.00995944 10774.5 0 0 0 
0.00585938 0.0761719 1000.07 4.79336e-07 1 1000.08 1.07507 1000.07 -0.000787172 0.0105024 10750.7 0 0 0 
0.00585938 0.0800781 1000.07 9.35848e-07 0.999999 1000.07 1.0727 1000.07 -0.00076127 0.0110286 10727 0 0 0 
0.00585938 0.0839844 1000.07 1.61099e-06 0.999998 1000.07 1.07033 1000.07 -0.000745997 0.0115421 10703.3 0 0 0 
0.00585938 0.0878906 1000.07 2.37858e-06 0.999998 1000.07 1.06796 1000.07 -0.000748577 0.0120517 10679.6 0 0 0 
0.00585938 0.0917969 1000.06 3.0512e-06 0.999997 1000.07 1.0656 1000.06 -0.00077167 0.0125698 10656 0 0 0 
0.00585938 0.0957031 1000.06 3.42091e-06 0.999997 1000.06 1.06325 1000.06 -0.000812473 0.0131085 10632.5 0 0 0 
0.00585938 0.0996094 1000.06 3.31632e-06 0.999997 1000.06 1.06089 1000.06 -0.000863499 0.0136777 10608.9 0 0 0 
0.00585938 0.103516 1000.06 2.67039e-06 0.999997 1000.06 1.05854 1000.06 -0.00091437 0.0142793 10585.4 0 0 0 
0.00585938 0.107422 1000.05 1.59605e-06 0.999998 1000.06 1.05624 1000.05 -0.000954195 0.0149094 10562.4 0 0 0 
0.00585938 0.111328 1000.05 4.70673e-07 1 1000.05 1.05414 1000.05 -0.000975221 0.0155365 10541.4 0 0 0 
0.00585938 0.115234 1000.05 3.00103e-08 1 1000.05 1.05311 1000.05 -0.000979698 0.0161198 10531.1 1 0 0 
0.00585938 0.119141 1000.05 1.46984e-06 0.999999 1000.05 1.04887 1000.05 -0.000986892 0.0168951 10488.7 0 0 0 
0.00585938 0.123047 1000.04 7.26733e-06 0.999993 1000.05 1.04692 1000.04 -0.00101482 0.0175607 10469.2 0 0 0 
0.00585938 0.126953 1000.03 1.77341e-05 0.999983 1000.04 1.04444 1000.03 -0.00106503 0.0182825 10444.4 0 0 0 
0.00585938 0.130859 1000.01 3.12416e-05 0.99997 1000.04 1.04221 1000.01 -0.00112796 0.0190123 10422.1 0 0 0 
0.00585938 0.134766 999.997 4.46484e-05 0.999957 1000.04 1.03983 999.997 -0.00118904 0.0197986 10398.3 0 0 0 
0.00585938 0.138672 999.985 5.40065e-05 0.999948 1000.04 1.03755 999.986 -0.00123403 0.0206115 10375.5 0 0 0 
0.00585938 0.142578 999.981 5.56615e-05 0.999946 1000.04 1.03521 999.981 -0.00125372 0.0214515 10352.1 0 0 0 
0.00585938 0.146484 999.987 4.76973e-05 0.999954 1000.03 1.03291 999.987 -0.00124534 0.0222924 10329.1 0 0 0 
0.00585938 0.150391 1000 3.16339e-05 0.999969 1000.03 1.03059 1000 -0.00121168 0.023121 10305.9 0 0 0 
0.00585938 0.154297 1000.01 1.41723e-05 0.999986 1000.03 1.02829 1000.01 -0.00115867 0.0239199 10282.9 0 0 0 
0.00585938 0.158203 1000.02 8.7927e-06 0.999991 1000.03 1.02598 1000.02 -0.00109331 0.0246805 10259.8 0 0 0 
0.00585938 0.162109 999.987 3.71409e-05 0.999964 1000.02 1.02369 999.987 -0.00102257 0.0253967 10236.9 0 0 0 
0.00585938 0.166016 999.894 0.000130346 0.999872 1000.02 1.02139 999.894 -0.000953396 0.0260691 10213.9 0 0 0 
0.00585938 0.169922 999.695 0.000330655 0.999676 1000.02 1.0191 999.695 -0.000893231 0.0267024 10191 0 0 0 
0.00585938 0.173828 999.334 0.000693914 0.999318 1000.02 1.01681 999.335 -0.000850198 0.0273077 10168.1 0 0 0 
0.00585938 0.177734 998.74 0.00129337 0.998725 1000.01 1.01453 998.741 -0.000832205 0.0279012 10145.3 0 0 0 
0.00585938 0.181641 997.814 0.00222508 0.997802 1000.01 1.01227 997.816 -0.000845004 0.0285045 10122.7 0 0 0 
0.00585938 0.185547 996.43 0.00361584 0.99642 1000.01 1.01001 996.434 -0.000890119 0.0291422 10100.1 0 0 0 
0.00585938 0.189453 994.413 0.00563802 0.994406 1000.01 1.00779 994.419 -0.000963933 0.0298404 10077.9 0 0 0 
0.00585938 0.193359 991.508 0.00854513 0.991502 1000.01 1.0056 991.517 -0.00105854 0.0306244 10056 0 0 0 
0.00585938 0.197266 987.294 0.0127534 0.987291 1000 1.00346 987.307 -0.00116384 0.0315185 10034.6 0 0 0 
0.00585938 0.201172 981.018 0.0190102 0.981016 1000 1.00141 981.037 -0.00126951 0.0325479 10014.1 0 0 0 
0.00585938 0.205078 971.253 0.0287314 0.971253 999.999 0.999474 971.282 -0.00136587 0.0337453 9994.74 0 0 0 
0.00585938 0.208984 955.186 0.0447094 0.955188 999.998 0.997722 955.231 -0.0014435 0.0351628 9977.22 0 0 0 
0.00585938 0.212891 926.992 0.0727302 0.926995 999.996 0.996236 927.064 -0.00149284 0.0369013 9962.36 0 0 0 
0.00585938 0.216797 874.841 0.124546 0.874845 999.995 0.995135 874.966 -0.0015069 0.0391728 9951.35 0 0 0 
0.00585938 0.220703 785.552 0.213277 0.785557 999.995 0.994561 785.766 -0.00149009 0.0423638 9945.61 0 0 0 
0.00585938 0.224609 659.885 0.338274 0.659889 999.995 0.994598 660.223 -0.00145752 0.0468866 9945.98 0 0 0 
0.00585938 0.228516 512.669 0.484975 0.512672 999.995 0.995172 513.154 -0.00142487 0.0528207 9951.72 0 0 0 
0.00585938 0.232422 363.887 0.633616 0.363888 999.996 0.996075 364.52 -0.00141277 0.0598141 9960.75 0 0 0 
0.00585938 0.236328 233.629 0.764075 0.23363 999.997 0.997006 234.393 -0.00144227 0.0673365 9970.06 0 0 0 
0.00585938 0.240234 137.797 0.860286 0.137797 999.998 0.997776 138.657 -0.00150992 0.0746502 9977.76 0 0 0 
0.00585938 0.244141 80.1242 0.918351 0.0801244 999.998 0.998342 81.0426 -0.00160161 0.0812103 9983.42 0 0 0 
0.00585938 0.248047 48.9493 0.94985 0.0489493 999.999 0.998738 49.8991 -0.00170569 0.08695 9987.38 0 0 0 
0.00585938 0.251953 31.4274 0.967623 0.0314274 999.999 0.999019 32.395 -0.00180678 0.0918915 9990.19 0 0 0 
0.00585938 0.255859 20.8971 0.97834 0.0208971 999.999 0.999221 21.8754 -0.00188588 0.0961906 9992.21 0 0 0 
0.00585938 0.259766 14.1742 0.985203 0.0141742 999.999 0.999368 15.1594 -0.00191745 0.0999495 9993.68 0 0 0 
0.00585938 0.263672 9.6599 0.98982 0.00965991 999.999 0.999475 10.6497 -0.00186861 0.103257 9994.75 0 0 0 
0.00585938 0.267578 6.52096 0.993035 0.00652096 1000 0.999553 7.51399 -0.00169855 0.106145 9995.53 0 0 0 
0.00585938 0.271484 4.30502 0.995306 0.00430503 1000 0.999609 5.30033 -0.00135521 0.1086 9996.09 0 0 0 
0.00585938 0.275391 2.74747 0.996903 0.00274747 1000 0.999649 3.74438 -0.00077985 0.110548 9996.49 0 0 0 
0.00585938 0.279297 1.67467 0.998005 0.00167467 1000 0.999679 2.67267 5.08101e-05 0.111883 9996.79 0 0 0 
0.00585938 0.283203 0.960075 0.99874 0.000960075 1000 0.9997 1.95882 0.00106803 0.112504 9997 0 0 0 
0.00585938 0.287109 0.50655 0.99921 0.00050655 1000 0.999716 1.50576 0.0021394 0.112349 9997.16 0 0 0 
0.00585938 0.291016 0.238655 0.99949 0.000238655 1000 0.999729 1.23815 0.00312209 0.111441 9997.29 0 0 0 
0.00585938 0.294922 0.0978737 0.999642 9.78737e-05 1000 0.99974 1.09752 0.00388881 0.10989 9997.4 0 0 0 
0.00585938 0.298828 0.0390444 0.999711 3.90444e-05 1000 0.99975 1.03876 0.0043632 0.107881 9997.5 0 0 0 
0.00585938 0.302734 0.0278502 0.999732 2.78502e-05 1000 0.99976 1.02758 0.00455568 0.105616 9997.6 0 0 0 
0.00585938 0.306641 0.039168 0.99973 3.9168e-05 1000 0.999769 1.0389 0.0045447 0.103257 9997.69 0 0 0 
0.00585938 0.310547 0.0559022 0.999723 5.59022e-05 1000 0.999779 1.05563 0.00442354 0.100906 9997.79 0 0 0 
0.00585938 0.314453 0.0679098 0.999721 6.79098e-05 1000 0.999789 1.06763 0.00427127 0.0986073 9997.89 0 0 0 
0.00585938 0.318359 0.0707622 0.999729 7.07622e-05 1000 0.999799 1.07049 0.0041444 0.0963631 9997.99 0 0 0 
0.00585938 0.322266 0.0642908 0.999745 6.42908e-05 1000 0.999809 1.06404 0.00406969 0.0941467 9998.09 0 0 0 
0.00585938 0.326172 0.0510355 0.999768 5.10355e-05 1000 0.999819 1.0508 0.00403385 0.0919299 9998.19 0 0 0 
0.00585938 0.330078 0.0347872 0.999794 3.47872e-05 1000 0.999828 1.03458 0.00398246 0.0897016 9998.28 0 0 0 
0.00585938 0.333984 0.0193819 0.999818 1.93819e-05 1000 0.999838 1.0192 0.00384705 0.0875035 9998.38 0 0 0 
0.00585938 0.337891 0.00780025 0.999839 7.80025e-06 1000 0.999847 1.00764 0.00360535 0.0854069 9998.47 0 0 0 
0.00585938 0.341797 0.00152244 0.999853 1.52244e-06 1000 0.999854 1.00138 0.00334073 0.0835434 9998.54 0 0 0 
0.00585938 0.345703 2.58458e-05 0.999858 2.58459e-08 999.998 0.999858 0.999884 0.00322294 0.0819581 9998.58 1 0 0 
0.00585938 0.349609 0.000320798 0.999873 3.20798e-07 1000 0.999873 1.00019 0.00329973 0.0796955 9998.73 0 0 0 
0.00585938 0.353516 0.00103106 0.999879 1.03106e-06 1000 0.99988 1.00091 0.00348451 0.077727 9998.8 0 0 0 
0.00585938 0.357422 0.00161321 0.999888 1.61321e-06 1000 0.999889 1.0015 0.00365778 0.0754987 9998.89 0 0 0 
0.00585938 0.361328 0.0019563 0.999895 1.9563e-06 1000 0.999897 1.00185 0.00374467 0.0732535 9998.97 0 0 0 
0.00585938 0.365234 0.00210745 0.999903 2.10745e-06 1000 0.999905 1.00201 0.00371831 0.0709112 9999.05 0 0 0 
0.00585938 0.369141 0.00212906 0.999911 2.12906e-06 1000 0.999913 1.00204 0.00359577 0.0686203 9999.13 0 0 0 
0.00585938 0.373047 0.00205416 0.999918 2.05416e-06 1000 0.99992 1.00197 0.00341539 0.0663876 9999.2 0 0 0 
0.00585938 0.376953 0.0018937 0.999926 1.8937e-06 1000 0.999928 1.00182 0.00321939 0.0642614 9999.28 0 0 0 
0.00585938 0.380859 0.0016582 0.999933 1.6582e-06 1000 0.999935 1.00159 0.00304204 0.0622279 9999.35 0 0 0 
0.00585938 0.384766 0.00137235 0.99994 1.37235e-06 1000 0.999942 1.00131 0.00290607 0.0602755 9999.42 0 0 0 
0.00585938 0.388672 0.00107627 0.999947 1.07627e-06 1000 0.999948 1.00102 0.00282159 0.0583703 9999.48 0 0 0 
0.00585938 0.392578 0.00081622 0.999954 8.1622e-07 1000 0.999955 1.00077 0.00278674 0.0564818 9999.55 0 0 0 
0.00585938 0.396484 0.00063149 0.99996 6.3149e-07 1000 0.999961 1.00059 0.00278946 0.0545803 9999.61 0 0 0 
0.00585938 0.400391 0.000543884 0.999966 5.43884e-07 1000 0.999967 1.00051 0.00281165 0.0526483 9999.67 0 0 0 
0.00585938 0.404297 0.000553439 0.999972 5.53439e-07 1000 0.999972 1.00053 0.00283492 0.0506795 9999.72 0 0 0 
0.00585938 0.408203 0.000640955 0.999977 6.40955e-07 1000 0.999978 1.00062 0.00284596 0.0486789 9999.78 0 0 0 
0.00585938 0.412109 0.00077527 0.999982 7.7527e-07 1000 0.999983 1.00076 0.00283941 0.0466576 9999.83 0 0 0 
0.00585938 0.416016 0.000922192 0.999987 9.22192e-07 1000 0.999988 1.00091 0.00281729 0.0446281 9999.88 0 0 0 
0.00585938 0.419922 0.00105223 0.999991 1.05223e-06 1000 0.999992 1.00104 0.00278608 0.0425995 9999.92 0 0 0 
0.00585938 0.423828 0.00114545 0.999996 1.14545e-06 1000 0.999997 1.00114 0.0027532 0.0405763 9999.97 0 0 0 
0.00585938 0.427734 0.00119315 1 1.19315e-06 1000 1 1.00119 0.0027246 0.0385583 10000 0 0 0 
0.00585938 0.431641 0.00119684 1 1.19684e-06 1000 1 1.0012 0.00270364 0.0365422 10000 0 0 0 
0.00585938 0.435547 0.00116561 1.00001 1.16561e-06 1000 1.00001 1.00117 0.00269118 0.0345229 10000.1 0 0 0 
0.00585938 0.439453 0.00111281 1.00001 1.11281e-06 1000 1.00001 1.00112 0.00268617 0.0324955 10000.1 0 0 0 
0.00585938 0.443359 0.00105265 1.00001 1.05265e-06 1000 1.00001 1.00107 0.00268635 0.0304563 10000.1 0 0 0 
0.00585938 0.447266 0.000997509 1.00002 9.97509e-07 1000 1.00002 1.00101 0.00268901 0.028404 10000.2 0 0 0 
0.00585938 0.451172 0.000956022 1.00002 9.56022e-07 1000 1.00002 1.00097 0.00269166 0.0263387 10000.2 0 0 0 
0.00585938 0.455078 0.000932294 1.00002 9.32294e-07 1000 1.00002 1.00095 0.00269257 0.0242627 10000.2 0 0 0 
0.00585938 0.458984 0.000926147 1.00002 9.26147e-07 1000 1.00002 1.00095 0.00269116 0.0221775 10000.2 0 0 0 
0.00585938 0.462891 0.000934145 1.00002 9.34145e-07 1000 1.00002 1.00096 0.0026879 0.0200863 10000.2 0 0 0 
0.00585938 0.466797 0.000951053 1.00002 9.51053e-07 1000 1.00002 1.00097 0.00268394 0.0179893 10000.2 0 0 0 
0.00585938 0.470703 0.000971324 1.00002 9.71324e-07 1000 1.00002 1.00099 0.00268057 0.0158897 10000.2 0 0 0 
0.00585938 0.474609 0.000990318 1.00002 9.90318e-07 1000 1.00002 1.00101 0.00267874 0.0137838 10000.2 0 0 0 
0.00585938 0.478516 0.00100503 1.00002 1.00503e-06 1000 1.00002 1.00103 0.00267873 0.0116772 10000.2 0 0 0 
0.00585938 0.482422 0.00101432 1.00002 1.01432e-06 1000 1.00002 1.00104 0.00268021 0.0095587 10000.2 0 0 0 
0.00585938 0.486328 0.00101867 1.00002 1.01867e-06 1000 1.00002 1.00104 0.00268244 0.00744583 10000.2 0 0 0 
0.00585938 0.490234 0.0010196 1.00002 1.0196e-06 1000 1.00002 1.00104 0.00268457 0.00530276 10000.2 0 0 0 
0.00585938 0.494141 0.001019 1.00002 1.019e-06 1000 1.00002 1.00104 0.00268606 0.0031784 10000.2 0 0 0 
0.00585938 0.498047 0.00101839 1.00002 1.01839e-06 1000 1.00002 1.00103 0.0026867 0.000915643 10000.2 0 0 0 
0.00976562 0.00195312 1000.12 8.13785e-07 0.999999 1000.12 1.12138 1000.12 -0.00136246 0.000100838 11213.8 0 0 0 
0.00976562 0.00585938 1000.12 8.44814e-07 0.999999 1000.12 1.1181 1000.12 -0.0013533 0.000820029 11181 0 0 0 
0.00976562 0.00976562 1000.12 8.94517e-07 0.999999 1000.12 1.11617 1000.12 -0.0013399 0.00133625 11161.7 0 0 0 
0.00976562 0.0136719 1000.11 9.45961e-07 0.999999 1000.11 1.11348 1000.11 -0.00132696 0.00191541 11134.8 0 0 0 
0.00976562 0.0175781 1000.11 9.87134e-07 0.999999 1000.11 1.11121 1000.11 -0.00131579 0.00243905 11112.1 0 0 0 
0.00976562 0.0214844 1000.11 1.01508e-06 0.999999 1000.11 1.10869 1000.11 -0.00130522 0.00298257 11086.9 0 0 0 
0.00976562 0.0253906 1000.11 1.03516e-06 0.999999 1000.11 1.10631 1000.11 -0.00129358 0.00350569 11063.1 0 0 0 
0.00976562 0.0292969 1000.1 1.05798e-06 0.999999 1000.1 1.10386 1000.1 -0.00128059 0.00403284 11038.6 0 0 0 
0.00976562 0.0332031 1000.1 1.09398e-06 0.999999 1000.1 1.10146 1000.1 -0.00126804 0.00455062 11014.6 0 0 0 
0.00976562 0.0371094 1000.1 1.14714e-06 0.999999 1000.1 1.09903 1000.1 -0.00125953 0.00506832 10990.3 0 0 0 
0.00976562 0.0410156 1000.1 1.20948e-06 0.999999 1000.1 1.09662 1000.1 -0.00125926 0.00558345 10966.2 0 0 0 
0.00976562 0.0449219 1000.09 1.25921e-06 0.999999 1000.09 1.09421 1000.09 -0.00127045 0.00610197 10942.1 0 0 0 
0.00976562 0.0488281 1000.09 1.26472e-06 0.999999 1000.09 1.09181 1000.09 -0.00129359 0.00662587 10918.1 0 0 0 
0.00976562 0.0527344 1000.09 1.1949e-06 0.999999 1000.09 1.0894 1000.09 -0.00132539 0.00715916 10894 0 0 0 
0.00976562 0.0566406 1000.09 1.03416e-06 0.999999 1000.09 1.08701 1000.09 -0.00135885 0.00770271 10870.1 0 0 0 
0.00976562 0.0605469 1000.08 7.9686e-07 0.999999 1000.08 1.08462 1000.08 -0.00138477 0.00825575 10846.2 0 0 0 
0.00976562 0.0644531 1000.08 5.34938e-07 1 1000.08 1.08223 1000.08 -0.00139455 0.00881429 10822.3 0 0 0 
0.00976562 0.0683594 1000.08 3.32867e-07 1 1000.08 1.07984 1000.08 -0.00138337 0.00937262 10798.4 0 0 0 