TITLE=FvSolution
VARIABLES=X Y RHO1Z1 RHO2Z2 Z1 RHO1 RHO2 RHO U V PRE theta lambdaX lambdaY 
ZONE T=TA, I=128, J=128, DATAPACKING = POINT
0.00195312 0.00195312 1000.14 8.01712e-07 0.999999 1000.14 1.14413 1000.14 0.000161799 -0.000327847 11441.3 0 0 0 
0.00195312 0.00585938 1000.14 8.40942e-07 0.999999 1000.14 1.14107 1000.14 0.00016239 -0.000466832 11410.7 0 0 0 
0.00195312 0.00976562 1000.14 9.10794e-07 0.999999 1000.14 1.13921 1000.14 0.000163548 -0.000806745 11392.1 0 0 0 
0.00195312 0.0136719 1000.14 9.90376e-07 0.999999 1000.14 1.13653 1000.14 0.000164955 -0.00107654 11365.3 0 0 0 
0.00195312 0.0175781 1000.13 1.0576e-06 0.999999 1000.13 1.13425 1000.13 0.000166309 -0.00140348 11342.5 0 0 0 
0.00195312 0.0214844 1000.13 1.09709e-06 0.999999 1000.13 1.1317 1000.13 0.000167481 -0.00170862 11317 0 0 0 
0.00195312 0.0253906 1000.13 1.10325e-06 0.999999 1000.13 1.1293 1000.13 0.000168555 -0.00203261 11293 0 0 0 
0.00195312 0.0292969 1000.13 1.08148e-06 0.999999 1000.13 1.1268 1000.13 0.00016976 -0.00235016 11268 0 0 0 
0.00195312 0.0332031 1000.12 1.04656e-06 0.999999 1000.12 1.12436 1000.12 0.000171369 -0.00267585 11243.6 0 0 0 
0.00195312 0.0371094 1000.12 1.01827e-06 0.999999 1000.12 1.12188 1000.12 0.000173573 -0.00300227 11218.8 0 0 0 
0.00195312 0.0410156 1000.12 1.01473e-06 0.999999 1000.12 1.11942 1000.12 0.000176397 -0.00333546 11194.2 0 0 0 
0.00195312 0.0449219 1000.12 1.04501e-06 0.999999 1000.12 1.11695 1000.12 0.000179645 -0.00367368 11169.5 0 0 0 
0.00195312 0.0488281 1000.11 1.10337e-06 0.999999 1000.11 1.11448 1000.11 0.000182927 -0.00401904 11144.8 0 0 0 
0.00195312 0.0527344 1000.11 1.16795e-06 0.999999 1000.11 1.11201 1000.11 0.000185753 -0.00437017 11120.1 0 0 0 
0.00195312 0.0566406 1000.11 1.20545e-06 0.999999 1000.11 1.10954 1000.11 0.000187715 -0.00472629 11095.4 0 0 0 
0.00195312 0.0605469 1000.11 1.18168e-06 0.999999 1000.11 1.10706 1000.11 0.000188683 -0.0050852 11070.6 0 0 0 
0.00195312 0.0644531 1000.1 1.07525e-06 0.999999 1000.1 1.10459 1000.1 0.00018899 -0.00544536 11045.9 0 0 0 
0.00195312 0.0683594 1000.1 8.902e-07 0.999999 1000.1 1.10212 1000.1 0.000189476 -0.00580613 11021.2 0 0 0 
0.00195312 0.0722656 1000.1 6.62977e-07 0.999999 1000.1 1.09964 1000.1 0.000191345 -0.00616905 10996.4 0 0 0 
0.00195312 0.0761719 1000.1 4.60988e-07 1 1000.1 1.09717 1000.1 0.000195796 -0.0065381 10971.7 0 0 0 
0.00195312 0.0800781 1000.09 3.71734e-07 1 1000.09 1.09469 1000.09 0.000203516 -0.00691912 10946.9 0 0 0 
0.00195312 0.0839844 1000.09 4.83085e-07 1 1000.09 1.09222 1000.09 0.000214233 -0.00731863 10922.2 0 0 0 
0.00195312 0.0878906 1000.09 8.55828e-07 0.999999 1000.09 1.08974 1000.09 0.00022652 -0.00774113 10897.4 0 0 0 
0.00195312 0.0917969 1000.09 1.49123e-06 0.999999 1000.09 1.08726 1000.09 0.000237986 -0.00818792 10872.6 0 0 0 
0.00195312 0.0957031 1000.08 2.30087e-06 0.999998 1000.08 1.08479 1000.08 0.000245845 -0.00865392 10847.9 0 0 0 
0.00195312 0.0996094 1000.08 3.09322e-06 0.999997 1000.08 1.08231 1000.08 0.000247743 -0.00913068 10823.1 0 0 0 
0.00195312 0.103516 1000.08 3.59712e-06 0.999997 1000.08 1.07984 1000.08 0.000242616 -0.00960297 10798.4 0 0 0 
0.00195312 0.107422 1000.07 3.53959e-06 0.999997 1000.08 1.07735 1000.07 0.000231285 -0.0100609 10773.5 0 0 0 
0.00195312 0.111328 1000.07 2.781e-06 0.999997 1000.07 1.0749 1000.07 0.000216443 -0.0104885 10749 0 0 0 
0.00195312 0.115234 1000.07 1.4868e-06 0.999999 1000.07 1.07239 1000.07 0.000201864 -0.010893 10723.9 0 0 0 
0.00195312 0.119141 1000.07 2.93061e-07 1 1000.07 1.06998 1000.07 0.000190837 -0.0112607 10699.8 1 0 0 
0.00195312 0.123047 1000.07 4.20483e-07 1 1000.07 1.06733 1000.07 0.00018505 -0.011634 10673.3 1 0 0 
0.00195312 0.126953 1000.06 3.83118e-06 0.999996 1000.06 1.06497 1000.06 0.000184021 -0.0119798 10649.7 0 0 0 
0.00195312 0.130859 1000.05 1.22222e-05 0.999988 1000.06 1.06251 1000.05 0.000184866 -0.0123267 10625.1 0 0 0 
0.00195312 0.134766 1000.04 2.47479e-05 0.999977 1000.06 1.06005 1000.04 0.000187626 -0.012682 10600.5 0 0 0 
0.00195312 0.138672 1000.02 3.84097e-05 0.999964 1000.06 1.05757 1000.02 0.000193558 -0.0130448 10575.7 0 0 0 
0.00195312 0.142578 1000.01 4.88986e-05 0.999954 1000.06 1.0551 1000.01 0.000203701 -0.0134241 10551 0 0 0 
0.00195312 0.146484 1000 5.19795e-05 0.999951 1000.05 1.05263 1000 0.000218793 -0.0138279 10526.3 0 0 0 
0.00195312 0.150391 1000.01 4.53638e-05 0.999957 1000.05 1.05016 1000.01 0.000239114 -0.014267 10501.6 0 0 0 
0.00195312 0.154297 1000.02 3.08672e-05 0.999971 1000.05 1.04768 1000.02 0.000264365 -0.0147514 10476.8 0 0 0 
0.00195312 0.158203 1000.03 1.6524e-05 0.999984 1000.05 1.04521 1000.03 0.000293522 -0.0152904 10452.1 0 0 0 
0.00195312 0.162109 1000.03 1.83327e-05 0.999982 1000.04 1.04274 1000.03 0.000324831 -0.0158898 10427.4 0 0 0 
0.00195312 0.166016 999.981 6.14789e-05 0.999941 1000.04 1.04028 999.981 0.000356006 -0.0165517 10402.8 0 0 0 
0.00195312 0.169922 999.863 0.000181216 0.999825 1000.04 1.03781 999.863 0.000384628 -0.0172729 10378.1 0 0 0 
0.00195312 0.173828 999.626 0.000423976 0.999591 1000.04 1.03535 999.626 0.000408616 -0.0180454 10353.5 0 0 0 
0.00195312 0.177734 999.21 0.000849696 0.999177 1000.03 1.03289 999.211 0.00042656 -0.0188573 10328.9 0 0 0 
0.00195312 0.181641 998.539 0.00153692 0.998508 1000.03 1.03043 998.54 0.000437781 -0.019694 10304.3 0 0 0 
0.00195312 0.185547 997.505 0.00259341 0.997477 1000.03 1.02797 997.508 0.000442145 -0.0205393 10279.7 0 0 0 
0.00195312 0.189453 995.952 0.00417769 0.995926 1000.03 1.02551 995.956 0.000439839 -0.0213762 10255.1 0 0 0 
0.00195312 0.193359 993.629 0.00654176 0.993606 1000.02 1.02305 993.635 0.000431301 -0.0221865 10230.5 0 0 0 
0.00195312 0.197266 990.11 0.0101145 0.99009 1000.02 1.02059 990.12 0.000417416 -0.022951 10205.9 0 0 0 
0.00195312 0.201172 984.633 0.0156639 0.984615 1000.02 1.01812 984.648 0.000399884 -0.0236479 10181.2 0 0 0 
0.00195312 0.205078 975.772 0.024623 0.975757 1000.02 1.01565 975.796 0.000381561 -0.024252 10156.5 0 0 0 
0.00195312 0.208984 960.75 0.0397809 0.960737 1000.01 1.01319 960.789 0.00036659 -0.024726 10131.9 0 0 0 
0.00195312 0.212891 933.851 0.0668692 0.933841 1000.01 1.01073 933.918 0.000359794 -0.0250062 10107.3 0 0 0 
0.00195312 0.216797 882.795 0.11819 0.882787 1000.01 1.00834 882.913 0.000364566 -0.0249553 10083.4 0 0 0 
0.00195312 0.220703 791.317 0.209961 0.791313 1000.01 1.0061 791.527 0.000380584 -0.0242784 10061 0 0 0 
0.00195312 0.224609 658.005 0.34342 0.658002 1000 1.00416 658.348 0.000401741 -0.0226207 10041.6 0 0 0 
0.00195312 0.228516 500.149 0.501179 0.500148 1000 1.00265 500.651 0.000412997 -0.0198422 10026.5 0 0 0 
0.00195312 0.232422 342.212 0.658818 0.342211 1000 1.00156 342.871 0.000398138 -0.0163945 10015.6 0 0 0 
0.00195312 0.236328 208.71 0.791942 0.20871 1000 1.00082 209.502 0.000347748 -0.0131801 10008.2 0 0 0 
0.00195312 0.240234 117.108 0.883206 0.117108 1000 1.00036 117.991 0.000264634 -0.0107379 10003.6 0 0 0 
0.00195312 0.244141 66.0975 0.933969 0.0660975 1000 1.00007 67.0315 0.00015884 -0.00907914 10000.7 0 0 0 
0.00195312 0.248047 39.3058 0.960591 0.0393058 1000 0.999892 40.2664 3.89351e-05 -0.00796428 9998.92 0 0 0 
0.00195312 0.251953 24.3857 0.975396 0.0243857 1000 0.999776 25.3611 -7.99015e-05 -0.0071485 9997.76 0 0 0 
0.00195312 0.255859 15.6087 0.984095 0.0156087 1000 0.999699 16.5928 -0.000172092 -0.00648178 9996.99 0 0 0 
0.00195312 0.259766 10.19 0.98946 0.01019 1000 0.999647 11.1794 -0.000217448 -0.00591522 9996.47 0 0 0 
0.00195312 0.263672 6.70081 0.992912 0.00670081 1000 0.99961 7.69372 -0.000210928 -0.00546659 9996.1 0 0 0 
0.00195312 0.267578 4.3785 0.995208 0.0043785 1000 0.999585 5.37371 -0.00015835 -0.00518116 9995.85 0 0 0 
0.00195312 0.271484 2.80198 0.996766 0.00280198 1000 0.999566 3.79874 -7.55004e-05 -0.00510194 9995.66 0 0 0 
0.00195312 0.275391 1.72891 0.997825 0.00172891 1000 0.999553 2.72673 1.18109e-05 -0.00524237 9995.53 0 0 0 
0.00195312 0.279297 1.01065 0.998534 0.00101065 1000 0.999544 2.00919 7.66576e-05 -0.0055703 9995.44 0 0 0 
0.00195312 0.283203 0.547968 0.998989 0.000547968 1000 0.999537 1.54696 0.000102702 -0.0060141 9995.37 0 0 0 
0.00195312 0.287109 0.268767 0.999263 0.000268767 1000 0.999531 1.26803 8.50534e-05 -0.00648715 9995.31 0 0 0 
0.00195312 0.291016 0.117539 0.999409 0.000117539 1000 0.999527 1.11695 2.39357e-05 -0.00690111 9995.27 0 0 0 
0.00195312 0.294922 0.0505061 0.999472 5.05061e-05 1000 0.999522 1.04998 -7.46403e-05 -0.00717233 9995.22 0 0 0 
0.00195312 0.298828 0.0334865 0.999485 3.34865e-05 1000 0.999518 1.03297 -0.000195757 -0.00723962 9995.18 0 0 0 
0.00195312 0.302734 0.0409211 0.999473 4.09212e-05 1000 0.999514 1.04039 -0.000321577 -0.00707544 9995.14 0 0 0 
0.00195312 0.306641 0.0552006 0.999455 5.52007e-05 1000 0.99951 1.05466 -0.000437156 -0.00668448 9995.1 0 0 0 
0.00195312 0.310547 0.0658165 0.99944 6.58165e-05 1000 0.999506 1.06526 -0.000527258 -0.00610071 9995.06 0 0 0 
0.00195312 0.314453 0.0681396 0.999433 6.81396e-05 1000 0.999501 1.06757 -0.00057892 -0.00539139 9995.01 0 0 0 
0.00195312 0.318359 0.0618775 0.999435 6.18776e-05 999.999 0.999497 1.06131 -0.000586769 -0.00463672 9994.97 0 0 0 
0.00195312 0.322266 0.0494187 0.999444 4.94187e-05 999.999 0.999493 1.04886 -0.000555079 -0.00392796 9994.93 0 0 0 
0.00195312 0.326172 0.0343034 0.999455 3.43034e-05 999.999 0.999489 1.03376 -0.000495747 -0.00332188 9994.89 0 0 0 
0.00195312 0.330078 0.0199999 0.999465 1.99999e-05 999.999 0.999485 1.01946 -0.000424884 -0.00287692 9994.85 0 0 0 
0.00195312 0.333984 0.00906118 0.999472 9.06118e-06 999.999 0.999481 1.00853 -0.000359761 -0.00256821 9994.81 0 0 0 
0.00195312 0.337891 0.00264376 0.999474 2.64376e-06 999.999 0.999477 1.00212 -0.000315637 -0.00242796 9994.77 0 0 0 
0.00195312 0.341797 0.000309402 0.999473 3.09402e-07 1000 0.999473 0.999782 -0.000296685 -0.00233061 9994.73 1 0 0 
0.00195312 0.345703 2.63715e-06 0.999469 2.63714e-09 1000.01 0.999469 0.999472 -0.000292943 -0.00242051 9994.69 1 0 0 
0.00195312 0.349609 0.00015151 0.999464 1.5151e-07 999.999 0.999465 0.999616 -0.000301119 -0.00219907 9994.65 0 0 0 
0.00195312 0.353516 0.000622285 0.999461 6.22285e-07 1000 0.999461 1.00008 -0.000325246 -0.00218546 9994.61 0 0 0 
0.00195312 0.357422 0.00123046 0.999456 1.23046e-06 1000 0.999457 1.00069 -0.000372031 -0.00203128 9994.57 0 0 0 
0.00195312 0.361328 0.00179549 0.999452 1.79549e-06 999.999 0.999454 1.00125 -0.000438923 -0.00183957 9994.54 0 0 0 
0.00195312 0.365234 0.00218239 0.999447 2.18239e-06 999.999 0.99945 1.00163 -0.000512749 -0.00149073 9994.5 0 0 0 
0.00195312 0.369141 0.00232411 0.999443 2.32411e-06 999.999 0.999446 1.00177 -0.000577944 -0.00103781 9994.46 0 0 0 
0.00195312 0.373047 0.00222298 0.99944 2.22298e-06 999.999 0.999442 1.00166 -0.000622915 -0.000478565 9994.42 0 0 0 
0.00195312 0.376953 0.00193529 0.999436 1.93529e-06 999.999 0.999438 1.00137 -0.000643289 0.000123147 9994.38 0 0 0 
0.00195312 0.380859 0.00154683 0.999433 1.54683e-06 999.999 0.999434 1.00098 -0.000641155 0.000730509 9994.34 0 0 0 
0.00195312 0.384766 0.00114736 0.999429 1.14736e-06 999.999 0.99943 1.00058 -0.000622444 0.00129807 9994.3 0 0 0 
0.00195312 0.388672 0.000810653 0.999426 8.10654e-07 999.999 0.999427 1.00024 -0.00059419 0.00180365 9994.27 0 0 0 
0.00195312 0.392578 0.00058287 0.999422 5.8287e-07 999.999 0.999423 1.00001 -0.000562836 0.00223288 9994.23 0 0 0 
0.00195312 0.396484 0.000479847 0.999419 4.79847e-07 999.999 0.999419 0.999899 -0.000533382 0.00258636 9994.19 0 0 0 
0.00195312 0.400391 0.000491224 0.999415 4.91224e-07 999.999 0.999416 0.999906 -0.000509028 0.00287092 9994.16 0 0 0 
0.00195312 0.404297 0.000588708 0.999411 5.88709e-07 999.999 0.999412 1 -0.000491069 0.0030991 9994.12 0 0 0 
0.00195312 0.408203 0.000735588 0.999408 7.35588e-07 999.999 0.999408 1.00014 -0.000479083 0.00328361 9994.08 0 0 0 
0.00195312 0.412109 0.000895275 0.999404 8.95276e-07 999.999 0.999405 1.0003 -0.000471414 0.00343539 9994.05 0 0 0 
0.00195312 0.416016 0.00103756 0.9994 1.03756e-06 999.999 0.999401 1.00044 -0.000465845 0.00356124 9994.01 0 0 0 
0.00195312 0.419922 0.00114213 0.999397 1.14213e-06 999.999 0.999398 1.00054 -0.000460265 0.00366366 9993.98 0 0 0 
0.00195312 0.423828 0.00119956 0.999393 1.19957e-06 999.999 0.999394 1.00059 -0.000453164 0.00374146 9993.94 0 0 0 
0.00195312 0.427734 0.00121041 0.999389 1.21041e-06 999.999 0.999391 1.0006 -0.000443849 0.00379124 9993.91 0 0 0 
0.00195312 0.431641 0.00118289 0.999386 1.18289e-06 999.999 0.999387 1.00057 -0.000432404 0.00380906 9993.87 0 0 0 
0.00195312 0.435547 0.00112998 0.999383 1.12998e-06 999.999 0.999384 1.00051 -0.000419471 0.00379169 9993.84 0 0 0 
0.00195312 0.439453 0.00106631 0.99938 1.06632e-06 999.999 0.999381 1.00045 -0.000405975 0.00373763 9993.81 0 0 0 
0.00195312 0.443359 0.00100543 0.999376 1.00543e-06 999.999 0.999377 1.00038 -0.000392862 0.00364713 9993.77 0 0 0 
0.00195312 0.447266 0.000957603 0.999373 9.57604e-07 999.999 0.999374 1.00033 -0.000380914 0.00352251 9993.74 0 0 0 
0.00195312 0.451172 0.000928634 0.99937 9.28635e-07 999.999 0.999371 1.0003 -0.00037064 0.00336683 9993.71 0 0 0 
0.00195312 0.455078 0.000919614 0.999367 9.19614e-07 999.999 0.999368 1.00029 -0.000362232 0.00318486 9993.68 0 0 0 
0.00195312 0.458984 0.000927593 0.999364 9.27594e-07 999.999 0.999365 1.00029 -0.000355578 0.00297979 9993.65 0 0 0 
0.00195312 0.462891 0.000946928 0.999361 9.46929e-07 999.999 0.999362 1.00031 -0.000350326 0.00275718 9993.62 0 0 0 
0.00195312 0.466797 0.000970931 0.999358 9.70932e-07 999.999 0.999359 1.00033 -0.000345978 0.0025169 9993.59 0 0 0 
0.00195312 0.470703 0.00099347 0.999355 9.93471e-07 999.999 0.999356 1.00035 -0.000342009 0.00226606 9993.56 0 0 0 
0.00195312 0.474609 0.00101017 0.999352 1.01017e-06 999.999 0.999353 1.00036 -0.000337999 0.00199656 9993.53 0 0 0 
0.00195312 0.478516 0.00101905 0.999349 1.01905e-06 999.999 0.99935 1.00037 -0.000333737 0.00172384 9993.5 0 0 0 
0.00195312 0.482422 0.00102049 0.999346 1.02049e-06 999.999 0.999347 1.00037 -0.000329258 0.00142102 9993.47 0 0 0 
0.00195312 0.486328 0.00101671 0.999344 1.01671e-06 999.999 0.999345 1.00036 -0.000324826 0.00113267 9993.45 0 0 0 
0.00195312 0.490234 0.00101082 0.999341 1.01082e-06 999.999 0.999342 1.00035 -0.000320903 0.000777603 9993.42 0 0 0 
0.00195312 0.494141 0.00100574 0.999339 1.00574e-06 999.999 0.99934 1.00034 -0.000318074 0.000489408 9993.4 0 0 0 
0.00195312 0.498047 0.00100326 0.999335 1.00326e-06 999.999 0.999336 1.00034 -0.000316786 -1.68237e-05 9993.36 0 0 0 
0.00585938 0.00195312 1000.14 8.00222e-07 0.999999 1000.14 1.14424 1000.14 0.000476348 -0.000327804 11442.4 0 0 0 
0.00585938 0.00585938 1000.14 8.39375e-07 0.999999 1000.14 1.14118 1000.14 0.000478131 -0.000466732 11411.8 0 0 0 
0.00585938 0.00976562 1000.14 9.09085e-07 0.999999 1000.14 1.13932 1000.14 0.000481584 -0.000806613 11393.2 0 0 0 
0.00585938 0.0136719 1000.14 9.88499e-07 0.999999 1000.14 1.13664 1000.14 0.000485769 -0.00107642 11366.4 0 0 0 
0.00585938 0.0175781 1000.13 1.05557e-06 0.999999 1000.13 1.13437 1000.13 0.000489796 -0.00140341 11343.7 0 0 0 
0.00585938 0.0214844 1000.13 1.09496e-06 0.999999 1000.13 1.13182 1000.13 0.000493294 -0.00170863 11318.2 0 0 0 
0.00585938 0.0253906 1000.13 1.10109e-06 0.999999 1000.13 1.12942 1000.13 0.000496508 -0.00203275 11294.2 0 0 0 
0.00585938 0.0292969 1000.13 1.07936e-06 0.999999 1000.13 1.12692 1000.13 0.000500109 -0.0023505 11269.2 0 0 0 
0.00585938 0.0332031 1000.12 1.04452e-06 0.999999 1000.12 1.12448 1000.12 0.000504884 -0.00267639 11244.8 0 0 0 
0.00585938 0.0371094 1000.12 1.01632e-06 0.999999 1000.12 1.122 1000.12 0.000511399 -0.003003 11220 0 0 0 
0.00585938 0.0410156 1000.12 1.01283e-06 0.999999 1000.12 1.11954 1000.12 0.000519726 -0.00333629 11195.4 0 0 0 
0.00585938 0.0449219 1000.12 1.04306e-06 0.999999 1000.12 1.11707 1000.12 0.000529301 -0.00367448 11170.7 0 0 0 
0.00585938 0.0488281 1000.11 1.1013e-06 0.999999 1000.11 1.1146 1000.11 0.000538981 -0.00401966 11146 0 0 0 
0.00585938 0.0527344 1000.11 1.1657e-06 0.999999 1000.11 1.11213 1000.11 0.000547342 -0.00437051 11121.3 0 0 0 
0.00585938 0.0566406 1000.11 1.20304e-06 0.999999 1000.11 1.10966 1000.11 0.000553184 -0.00472632 11096.6 0 0 0 
0.00585938 0.0605469 1000.11 1.17922e-06 0.999999 1000.11 1.10718 1000.11 0.000556137 -0.00508502 11071.8 0 0 0 
0.00585938 0.0644531 1000.1 1.07294e-06 0.999999 1000.1 1.10471 1000.1 0.000557173 -0.00544517 11047.1 0 0 0 
0.00585938 0.0683594 1000.1 8.88225e-07 0.999999 1000.1 1.10224 1000.1 0.000558754 -0.00580619 11022.4 0 0 0 
0.00585938 0.0722656 1000.1 6.61463e-07 0.999999 1000.1 1.09977 1000.1 0.000564397 -0.00616961 10997.7 0 0 0 
0.00585938 0.0761719 1000.1 4.59921e-07 1 1000.1 1.09729 1000.1 0.000577608 -0.00653921 10972.9 0 0 0 
0.00585938 0.0800781 1000.09 3.70942e-07 1 1000.09 1.09482 1000.09 0.000600419 -0.0069206 10948.2 0 0 0 
0.00585938 0.0839844 1000.09 4.82244e-07 1 1000.09 1.09234 1000.09 0.000632064 -0.00732002 10923.4 0 0 0 
0.00585938 0.0878906 1000.09 8.5449e-07 0.999999 1000.09 1.08987 1000.09 0.000668369 -0.0077418 10898.7 0 0 0 
0.00585938 0.0917969 1000.09 1.48886e-06 0.999999 1000.09 1.08739 1000.09 0.000702267 -0.00818717 10873.9 0 0 0 
0.00585938 0.0957031 1000.08 2.29694e-06 0.999998 1000.08 1.08492 1000.08 0.000725466 -0.00865111 10849.2 0 0 0 
0.00585938 0.0996094 1000.08 3.08741e-06 0.999997 1000.08 1.08244 1000.08 0.000730949 -0.00912533 10824.4 0 0 0 
0.00585938 0.103516 1000.08 3.5896e-06 0.999997 1000.08 1.07997 1000.08 0.000715584 -0.00959479 10799.7 0 0 0 
0.00585938 0.107422 1000.07 3.53129e-06 0.999997 1000.08 1.07748 1000.07 0.000681912 -0.01005 10774.8 0 0 0 
0.00585938 0.111328 1000.07 2.77353e-06 0.999997 1000.08 1.07503 1000.07 0.00063804 -0.0104755 10750.3 0 0 0 
0.00585938 0.115234 1000.07 1.48193e-06 0.999999 1000.07 1.07251 1000.07 0.000595324 -0.0108792 10725.1 0 0 0 
0.00585938 0.119141 1000.07 2.91581e-07 1 1000.07 1.0701 1000.07 0.000563998 -0.011248 10701 1 0 0 
0.00585938 0.123047 1000.07 4.20936e-07 1 1000.07 1.06744 1000.07 0.000548404 -0.0116249 10674.4 1 0 0 
0.00585938 0.126953 1000.06 3.82692e-06 0.999996 1000.07 1.06509 1000.06 0.000543927 -0.0119747 10650.9 0 0 0 
0.00585938 0.130859 1000.05 1.22003e-05 0.999989 1000.06 1.06263 1000.05 0.000545701 -0.0123238 10626.3 0 0 0 
0.00585938 0.134766 1000.04 2.46958e-05 0.999977 1000.06 1.06017 1000.04 0.000553899 -0.0126811 10601.7 0 0 0 
0.00585938 0.138672 1000.02 3.83216e-05 0.999964 1000.06 1.05769 1000.02 0.000571543 -0.0130455 10576.9 0 0 0 
0.00585938 0.142578 1000.01 4.87789e-05 0.999954 1000.06 1.05522 1000.01 0.000601486 -0.0134264 10552.2 0 0 0 
0.00585938 0.146484 1000 5.18432e-05 0.999951 1000.05 1.05275 1000 0.000645841 -0.0138307 10527.5 0 0 0 
0.00585938 0.150391 1000.01 4.52323e-05 0.999957 1000.05 1.05028 1000.01 0.0007054 -0.0142687 10502.8 0 0 0 
0.00585938 0.154297 1000.02 3.07567e-05 0.999971 1000.05 1.04781 1000.02 0.000779317 -0.0147492 10478.1 0 0 0 
0.00585938 0.158203 1000.03 1.64291e-05 0.999984 1000.05 1.04534 1000.03 0.000864658 -0.0152805 10453.4 0 0 0 
0.00585938 0.162109 1000.03 1.82052e-05 0.999983 1000.04 1.04287 1000.03 0.000956399 -0.0158682 10428.7 0 0 0 
0.00585938 0.166016 999.982 6.12057e-05 0.999941 1000.04 1.0404 999.982 0.001048 -0.0165142 10404 0 0 0 
0.00585938 0.169922 999.864 0.000180597 0.999826 1000.04 1.03793 999.864 0.00113253 -0.0172161 10379.3 0 0 0 
0.00585938 0.173828 999.627 0.000422699 0.999592 1000.04 1.03545 999.628 0.00120398 -0.0179675 10354.5 0 0 0 
0.00585938 0.177734 999.213 0.0008473 0.99918 1000.03 1.03298 999.214 0.00125811 -0.018758 10329.8 0 0 0 
0.00585938 0.181641 998.543 0.00153272 0.998513 1000.03 1.03051 998.545 0.00129272 -0.0195746 10305.1 0 0 0 
0.00585938 0.185547 997.512 0.00258643 0.997484 1000.03 1.02804 997.515 0.00130717 -0.0204023 10280.4 0 0 0 
0.00585938 0.189453 995.963 0.0041665 0.995937 1000.03 1.02557 995.967 0.00130186 -0.0212248 10255.7 0 0 0 
0.00585938 0.193359 993.646 0.00652436 0.993623 1000.02 1.0231 993.652 0.00127804 -0.0220246 10231 0 0 0 
0.00585938 0.197266 990.136 0.0100881 0.990116 1000.02 1.02063 990.146 0.00123836 -0.0227833 10206.3 0 0 0 
0.00585938 0.201172 984.672 0.0156245 0.984654 1000.02 1.01816 984.688 0.00118792 -0.0234797 10181.6 0 0 0 
0.00585938 0.205078 975.83 0.0245643 0.975815 1000.02 1.01568 975.855 0.00113509 -0.0240894 10156.8 0 0 0 
0.00585938 0.208984 960.838 0.0396919 0.960826 1000.01 1.01321 960.878 0.00109114 -0.0245758 10132.1 0 0 0 
0.00585938 0.212891 933.991 0.0667286 0.933981 1000.01 1.01075 934.058 0.00106784 -0.0248755 10107.5 0 0 0 
0.00585938 0.216797 883.025 0.11796 0.883017 1000.01 1.00836 883.143 0.00107569 -0.0248483 10083.6 0 0 0 
0.00585938 0.220703 791.652 0.209628 0.791647 1000.01 1.00612 791.862 0.0011143 -0.0241944 10061.2 0 0 0 
0.00585938 0.224609 658.407 0.343022 0.658405 1000 1.00417 658.75 0.00116763 -0.0225552 10041.7 0 0 0 
0.00585938 0.228516 500.572 0.500762 0.500571 1000 1.00267 501.073 0.0011916 -0.0197889 10026.7 0 0 0 
0.00585938 0.232422 342.608 0.658428 0.342608 1000 1.00158 343.267 0.00114131 -0.0163431 10015.8 0 0 0 
0.00585938 0.236328 209.033 0.791624 0.209033 1000 1.00083 209.824 0.000992021 -0.0131242 10008.3 0 0 0 
0.00585938 0.240234 117.322 0.882995 0.117322 1000 1.00036 118.205 0.00075067 -0.0106793 10003.6 0 0 0 
0.00585938 0.244141 66.2203 0.933848 0.0662203 1000 1.00007 67.1541 0.000445923 -0.0090261 10000.7 0 0 0 
0.00585938 0.248047 39.3768 0.960521 0.0393768 1000 0.999894 40.3373 0.000110125 -0.00793143 9998.94 0 0 0 
0.00585938 0.251953 24.4276 0.975355 0.0244276 1000 0.999777 25.403 -0.000214806 -0.00716382 9997.77 0 0 0 
0.00585938 0.255859 15.6334 0.984071 0.0156334 1000 0.999699 16.6175 -0.000468568 -0.00657082 9996.99 0 0 0 
0.00585938 0.259766 10.2043 0.989446 0.0102043 1000 0.999647 11.1937 -0.000601254 -0.00608201 9996.47 0 0 0 
0.00585938 0.263672 6.70878 0.992904 0.00670878 1000 0.99961 7.70168 -0.000591198 -0.0056971 9996.1 0 0 0 
0.00585938 0.267578 4.38278 0.995204 0.00438279 1000 0.999584 5.37799 -0.00045042 -0.00545094 9995.84 0 0 0 
0.00585938 0.271484 2.80423 0.996763 0.00280423 1000 0.999566 3.80099 -0.000225811 -0.00537851 9995.66 0 0 0 
0.00585938 0.275391 1.73012 0.997824 0.00173012 1000 0.999554 2.72794 1.11691e-05 -0.00548783 9995.54 0 0 0 
0.00585938 0.279297 1.01136 0.998533 0.00101137 1000 0.999544 2.0099 0.000189875 -0.00575395 9995.44 0 0 0 
0.00585938 0.283203 0.548436 0.998989 0.000548436 1000 0.999537 1.54742 0.000263368 -0.00612267 9995.37 0 0 0 
0.00585938 0.287109 0.269095 0.999262 0.000269095 1000 0.999531 1.26836 0.000214335 -0.00652021 9995.31 0 0 0 
0.00585938 0.291016 0.117763 0.999409 0.000117763 1000 0.999527 1.11717 4.26524e-05 -0.00686746 9995.27 0 0 0 
0.00585938 0.294922 0.0506408 0.999472 5.06408e-05 1000 0.999522 1.05011 -0.000234432 -0.00709289 9995.22 0 0 0 
0.00585938 0.298828 0.0335466 0.999485 3.35466e-05 1000 0.999518 1.03303 -0.000580602 -0.00713967 9995.18 0 0 0 
0.00585938 0.302734 0.0409279 0.999473 4.09279e-05 1000 0.999514 1.0404 -0.00094968 -0.00697257 9995.14 0 0 0 
0.00585938 0.306641 0.0551788 0.999455 5.51788e-05 1000 0.99951 1.05463 -0.00129217 -0.00658967 9995.1 0 0 0 
0.00585938 0.310547 0.0657888 0.99944 6.57888e-05 1000 0.999506 1.06523 -0.00155939 -0.00602159 9995.06 0 0 0 
0.00585938 0.314453 0.0681218 0.999433 6.81218e-05 1000 0.999501 1.06756 -0.00171292 -0.00533205 9995.01 0 0 0 
0.00585938 0.318359 0.0618766 0.999435 6.18766e-05 999.999 0.999497 1.06131 -0.00173717 -0.00459709 9994.97 0 0 0 
0.00585938 0.322266 0.0494335 0.999443 4.94335e-05 999.999 0.999493 1.04888 -0.00164486 -0.00390379 9994.93 0 0 0 
0.00585938 0.326172 0.0343277 0.999455 3.43277e-05 999.999 0.999489 1.03378 -0.001471 -0.00330568 9994.89 0 0 0 
0.00585938 0.330078 0.0200257 0.999465 2.00257e-05 999.999 0.999485 1.01949 -0.00126245 -0.00285966 9994.85 0 0 0 
0.00585938 0.333984 0.00908156 0.999472 9.08157e-06 999.999 0.999481 1.00855 -0.00106912 -0.00254329 9994.81 0 0 0 
0.00585938 0.337891 0.0026549 0.999474 2.6549e-06 999.999 0.999477 1.00213 -0.000935976 -0.00239306 9994.77 0 0 0 
0.00585938 0.341797 0.000311919 0.999473 3.11919e-07 1000 0.999473 0.999785 -0.000882163 -0.00229133 9994.73 1 0 0 
0.00585938 0.345703 2.59843e-06 0.999469 2.59847e-09 999.986 0.999469 0.999472 -0.000879056 -0.0023744 9994.69 1 0 0 
0.00585938 0.349609 0.000151768 0.999465 1.51768e-07 999.999 0.999465 0.999616 -0.000891156 -0.00215106 9994.65 0 0 0 
0.00585938 0.353516 0.000623577 0.999461 6.23577e-07 999.999 0.999461 1.00008 -0.000960858 -0.00213853 9994.61 0 0 0 
0.00585938 0.357422 0.00123256 0.999456 1.23256e-06 999.999 0.999457 1.00069 -0.001102 -0.00198218 9994.57 0 0 0 
0.00585938 0.361328 0.00179783 0.999452 1.79783e-06 999.999 0.999454 1.00125 -0.00130137 -0.00179044 9994.54 0 0 0 
0.00585938 0.365234 0.00218444 0.999447 2.18444e-06 999.999 0.99945 1.00163 -0.00152055 -0.00144569 9994.5 0 0 0 
0.00585938 0.369141 0.00232553 0.999443 2.32553e-06 999.999 0.999446 1.00177 -0.00171463 -0.00100102 9994.46 0 0 0 
0.00585938 0.373047 0.00222366 0.99944 2.22366e-06 999.999 0.999442 1.00166 -0.00184949 -0.000451347 9994.42 0 0 0 
0.00585938 0.376953 0.00193536 0.999436 1.93537e-06 999.999 0.999438 1.00137 -0.00191162 0.000142104 9994.38 0 0 0 
0.00585938 0.380859 0.0015465 0.999433 1.5465e-06 999.999 0.999434 1.00098 -0.00190659 0.000743873 9994.34 0 0 0 
0.00585938 0.384766 0.00114687 0.999429 1.14687e-06 999.999 0.99943 1.00058 -0.00185169 0.00130847 9994.3 0 0 0 
0.00585938 0.388672 0.000810157 0.999426 8.10157e-07 999.999 0.999427 1.00024 -0.00176783 0.00181309 9994.27 0 0 0 
0.00585938 0.392578 0.000582456 0.999422 5.82457e-07 999.999 0.999423 1 -0.00167432 0.00224257 9994.23 0 0 0 
0.00585938 0.396484 0.000479531 0.999419 4.79531e-07 999.999 0.999419 0.999898 -0.00158624 0.00259691 9994.19 0 0 0 
0.00585938 0.400391 0.000490979 0.999415 4.90979e-07 999.999 0.999416 0.999906 -0.00151324 0.00288247 9994.16 0 0 0 
0.00585938 0.404297 0.000588497 0.999411 5.88498e-07 999.999 0.999412 1 -0.00145924 0.00311142 9994.12 0 0 0 
0.00585938 0.408203 0.000735386 0.999408 7.35386e-07 999.999 0.999408 1.00014 -0.00142302 0.00329614 9994.08 0 0 0 
0.00585938 0.412109 0.000895075 0.999404 8.95076e-07 999.999 0.999405 1.0003 -0.00139968 0.00344741 9994.05 0 0 0 
0.00585938 0.416016 0.00103737 0.9994 1.03737e-06 999.999 0.999401 1.00044 -0.00138267 0.00357197 9994.01 0 0 0 
0.00585938 0.419922 0.00114197 0.999397 1.14197e-06 999.999 0.999398 1.00054 -0.00136572 0.00367248 9993.98 0 0 0 
0.00585938 0.423828 0.00119946 0.999393 1.19946e-06 999.999 0.999394 1.00059 -0.00134435 0.00374802 9993.94 0 0 0 
0.00585938 0.427734 0.00121036 0.99939 1.21036e-06 999.999 0.999391 1.0006 -0.00131648 0.00379552 9993.91 0 0 0 
0.00585938 0.431641 0.00118289 0.999386 1.18289e-06 999.999 0.999387 1.00057 -0.00128234 0.00381134 9993.87 0 0 0 
0.00585938 0.435547 0.00113001 0.999383 1.13001e-06 999.999 0.999384 1.00051 -0.0012438 0.00379245 9993.84 0 0 0 
0.00585938 0.439453 0.00106637 0.99938 1.06637e-06 999.999 0.999381 1.00045 -0.00120358 0.00373747 9993.81 0 0 0 
0.00585938 0.443359 0.00100549 0.999376 1.00549e-06 999.999 0.999377 1.00038 -0.00116449 0.00364662 9993.77 0 0 0 
0.00585938 0.447266 0.000957651 0.999373 9.57652e-07 999.999 0.999374 1.00033 -0.00112883 0.00352213 9993.74 0 0 0 
0.00585938 0.451172 0.000928666 0.99937 9.28667e-07 999.999 0.999371 1.0003 -0.00109811 0.0033669 9993.71 0 0 0 
0.00585938 0.455078 0.00091963 0.999367 9.1963e-07 999.999 0.999368 1.00029 -0.00107291 0.00318551 9993.68 0 0 0 
0.00585938 0.458984 0.000927597 0.999364 9.27598e-07 999.999 0.999365 1.00029 -0.00105289 0.00298096 9993.65 0 0 0 
0.00585938 0.462891 0.000946924 0.999361 9.46925e-07 999.999 0.999362 1.00031 -0.00103704 0.00275871 9993.62 0 0 0 
0.00585938 0.466797 0.000970925 0.999358 9.70925e-07 999.999 0.999359 1.00033 -0.0010239 0.00251855 9993.59 0 0 0 
0.00585938 0.470703 0.000993463 0.999355 9.93464e-07 999.999 0.999356 1.00035 -0.00101191 0.00226761 9993.56 0 0 0 
0.00585938 0.474609 0.00101017 0.999352 1.01017e-06 999.999 0.999353 1.00036 -0.000999853 0.00199784 9993.53 0 0 0 
0.00585938 0.478516 0.00101904 0.999349 1.01904e-06 999.999 0.99935 1.00037 -0.000987099 0.00172481 9993.5 0 0 0 
0.00585938 0.482422 0.00102049 0.999346 1.02049e-06 999.999 0.999347 1.00037 -0.000973737 0.00142175 9993.47 0 0 0 
0.00585938 0.486328 0.00101671 0.999344 1.01671e-06 999.999 0.999345 1.00036 -0.000960508 0.00113326 9993.45 0 0 0 
0.00585938 0.490234 0.00101081 0.999341 1.01081e-06 999.999 0.999342 1.00035 -0.000948754 0.000778109 9993.42 0 0 0 
0.00585938 0.494141 0.00100573 0.999339 1.00573e-06 999.999 0.99934 1.00034 -0.000940232 0.000489777 9993.4 0 0 0 
0.00585938 0.498047 0.00100326 0.999335 1.00326e-06 999.999 0.999336 1.00034 -0.000936342 -1.66807e-05 9993.36 0 0 0 
0.00976562 0.00195312 1000.14 7.97945e-07 0.999999 1000.14 1.14423 1000.14 0.00079287 -0.000327579 11442.3 0 0 0 
0.00976562 0.00585938 1000.14 8.36979e-07 0.999999 1000.14 1.14117 1000.14 0.000795909 -0.000466061 11411.7 0 0 0 
0.00976562 0.00976562 1000.14 9.06469e-07 0.999999 1000.14 1.13931 1000.14 0.000801758 -0.000805646 11393.1 0 0 0 
0.00976562 0.0136719 1000.14 9.85615e-07 0.999999 1000.14 1.13663 1000.14 0.000808819 -0.00107532 11366.3 0 0 0 
0.00976562 0.0175781 1000.13 1.05244e-06 0.999999 1000.13 1.13436 1000.13 0.000815607 -0.00140231 11343.6 0 0 0 
0.00976562 0.0214844 1000.13 1.09166e-06 0.999999 1000.13 1.13181 1000.13 0.000821521 -0.00170766 11318.1 0 0 0 
0.00976562 0.0253906 1000.13 1.09773e-06 0.999999 1000.13 1.12941 1000.13 0.000826957 -0.00203202 11294.1 0 0 0 
0.00976562 0.0292969 1000.13 1.07607e-06 0.999999 1000.13 1.12691 1000.13 0.000833006 -0.00235005 11269.1 0 0 0 
0.00976562 0.0332031 1000.12 1.04138e-06 0.999999 1000.12 1.12446 1000.12 0.000840946 -0.00267624 11244.6 0 0 0 
0.00976562 0.0371094 1000.12 1.01336e-06 0.999999 1000.12 1.12199 1000.12 0.000851701 -0.00300307 11219.9 0 0 0 
0.00976562 0.0410156 1000.12 1.00998e-06 0.999999 1000.12 1.11953 1000.12 0.000865398 -0.00333644 11195.3 0 0 0 