TITLE=FvSolution
VARIABLES=X Y RHO1Z1 RHO2Z2 Z1 RHO1 RHO2 RHO U V PRE theta lambdaX lambdaY 
ZONE T=TA, I=128, J=128, DATAPACKING = POINT
0.00195312 0.00195312 1000.18 9.3483e-07 0.999999 1000.18 1.17719 1000.18 0.000712591 -0.000990438 11771.9 0 0 0 
0.00195312 0.00585938 1000.17 9.46568e-07 0.999999 1000.17 1.17403 1000.17 0.000712803 -0.00248688 11740.3 0 0 0 
0.00195312 0.00976562 1000.17 9.84603e-07 0.999999 1000.17 1.17228 1000.17 0.000713453 -0.00415785 11722.8 0 0 0 
0.00195312 0.0136719 1000.17 1.02516e-06 0.999999 1000.17 1.1696 1000.17 0.000714694 -0.00575907 11696 0 0 0 
0.00195312 0.0175781 1000.17 1.04024e-06 0.999999 1000.17 1.16732 1000.17 0.000716571 -0.00742264 11673.2 0 0 0 
0.00195312 0.0214844 1000.16 1.03427e-06 0.999999 1000.16 1.16474 1000.16 0.000719027 -0.00906498 11647.4 0 0 0 
0.00195312 0.0253906 1000.16 1.02493e-06 0.999999 1000.16 1.1623 1000.16 0.000721939 -0.0107298 11623 0 0 0 
0.00195312 0.0292969 1000.16 1.01602e-06 0.999999 1000.16 1.15976 1000.16 0.000725175 -0.0123909 11597.6 0 0 0 
0.00195312 0.0332031 1000.16 1.0086e-06 0.999999 1000.16 1.15727 1000.16 0.000728632 -0.0140637 11572.7 0 0 0 
0.00195312 0.0371094 1000.15 1.00315e-06 0.999999 1000.15 1.15474 1000.15 0.000732259 -0.0157394 11547.4 0 0 0.000544927 
0.00195312 0.0410156 1000.15 9.99738e-07 0.999999 1000.15 1.15221 1000.15 0.000736059 -0.0174234 11522.1 0 0 0.000544927 
0.00195312 0.0449219 1000.15 9.9811e-07 0.999999 1000.15 1.14967 1000.15 0.00074008 -0.019113 11496.7 0 0 0 
0.00195312 0.0488281 1000.15 9.97847e-07 0.999999 1000.15 1.14713 1000.15 0.000744391 -0.0208102 11471.3 0 0 0 
0.00195312 0.0527344 1000.14 9.98445e-07 0.999999 1000.14 1.14458 1000.14 0.00074906 -0.0225146 11445.8 0 0 0 
0.00195312 0.0566406 1000.14 9.99419e-07 0.999999 1000.14 1.14202 1000.14 0.000754139 -0.0242274 11420.2 0 0 0.00395666 
0.00195312 0.0605469 1000.14 1.00039e-06 0.999999 1000.14 1.13945 1000.14 0.000759654 -0.025949 11394.5 0 0 0.00395666 
0.00195312 0.0644531 1000.14 1.00111e-06 0.999999 1000.14 1.13687 1000.14 0.000765609 -0.0276804 11368.7 0 0 0 
0.00195312 0.0683594 1000.13 1.00151e-06 0.999999 1000.13 1.13429 1000.13 0.000771988 -0.0294222 11342.9 0 0 0 
0.00195312 0.0722656 1000.13 1.00161e-06 0.999999 1000.13 1.1317 1000.13 0.00077877 -0.0311752 11317 0 0 0 
0.00195312 0.0761719 1000.13 1.00151e-06 0.999999 1000.13 1.1291 1000.13 0.000785934 -0.0329399 11291 0 0 0 
0.00195312 0.0800781 1000.13 1.00131e-06 0.999999 1000.13 1.12649 1000.13 0.000793464 -0.0347172 11264.9 0 0 -0.00413671 
0.00195312 0.0839844 1000.12 1.00108e-06 0.999999 1000.12 1.12388 1000.12 0.000801356 -0.0365075 11238.8 0 0 -0.00413671 
0.00195312 0.0878906 1000.12 1.00088e-06 0.999999 1000.12 1.12126 1000.12 0.000809613 -0.0383114 11212.6 0 0 0 
0.00195312 0.0917969 1000.12 1.00073e-06 0.999999 1000.12 1.11862 1000.12 0.000818244 -0.0401297 11186.2 0 0 0 
0.00195312 0.0957031 1000.12 1.00064e-06 0.999999 1000.12 1.11599 1000.12 0.000827263 -0.0419628 11159.9 0 0 0 
0.00195312 0.0996094 1000.11 1.00058e-06 0.999999 1000.11 1.11334 1000.11 0.000836683 -0.0438116 11133.4 0 0 0 
0.00195312 0.103516 1000.11 1.00057e-06 0.999999 1000.11 1.11068 1000.11 0.000846513 -0.0456767 11106.8 0 0 0 
0.00195312 0.107422 1000.11 1.00063e-06 0.999999 1000.11 1.10802 1000.11 0.000856756 -0.0475589 11080.2 0 0 0 
0.00195312 0.111328 1000.1 1.00076e-06 0.999999 1000.11 1.10535 1000.1 0.000867408 -0.0494589 11053.5 0 0 0.00264135 
0.00195312 0.115234 1000.1 1.00097e-06 0.999999 1000.1 1.10267 1000.1 0.000878458 -0.0513773 11026.7 0 0 0.00264135 
0.00195312 0.119141 1000.1 1.00123e-06 0.999999 1000.1 1.09999 1000.1 0.000889896 -0.0533149 10999.9 0 0 0 
0.00195312 0.123047 1000.1 1.00147e-06 0.999999 1000.1 1.0973 1000.1 0.000901717 -0.0552723 10973 0 0 0.00132315 
0.00195312 0.126953 1000.09 1.0016e-06 0.999999 1000.09 1.0946 1000.09 0.000913931 -0.0572502 10946 0 0 0.0019495 
0.00195312 0.130859 1000.09 1.00157e-06 0.999999 1000.09 1.0919 1000.09 0.000926571 -0.0592491 10919 0 0 0.000626358 
0.00195312 0.134766 1000.09 1.00133e-06 0.999999 1000.09 1.0892 1000.09 0.000939691 -0.0612699 10892 0 0 0 
0.00195312 0.138672 1000.09 1.00086e-06 0.999999 1000.09 1.08649 1000.09 0.000953353 -0.0633134 10864.9 0 0 0 
0.00195312 0.142578 1000.08 1.00026e-06 0.999999 1000.08 1.08379 1000.08 0.000967609 -0.0653806 10837.9 0 0 0 
0.00195312 0.146484 1000.08 1.00006e-06 0.999999 1000.08 1.08108 1000.08 0.000982469 -0.0674725 10810.8 0 0 0 
0.00195312 0.150391 1000.08 1.00193e-06 0.999999 1000.08 1.07837 1000.08 0.000997878 -0.0695901 10783.7 0 0 0.000701214 
0.00195312 0.154297 1000.07 1.00848e-06 0.999999 1000.08 1.07566 1000.07 0.00101371 -0.0717346 10756.6 0 0 0.000701214 
0.00195312 0.158203 1000.07 1.02193e-06 0.999999 1000.07 1.07295 1000.07 0.00102979 -0.0739064 10729.5 0 0 0 
0.00195312 0.162109 1000.07 1.04393e-06 0.999999 1000.07 1.07024 1000.07 0.00104596 -0.076106 10702.4 0 0 0 
0.00195312 0.166016 1000.07 1.07664e-06 0.999999 1000.07 1.06753 1000.07 0.00106219 -0.0783336 10675.3 0 0 0 
0.00195312 0.169922 1000.06 1.12547e-06 0.999999 1000.06 1.0648 1000.06 0.00107864 -0.0805896 10648 0 0 0 
0.00195312 0.173828 1000.06 1.20571e-06 0.999999 1000.06 1.06208 1000.06 0.00109576 -0.0828747 10620.8 0 0 0 
0.00195312 0.177734 1000.06 1.36039e-06 0.999999 1000.06 1.05934 1000.06 0.00111424 -0.085191 10593.4 0 0 0 
0.00195312 0.181641 1000.05 1.97149e-06 0.999998 1000.06 1.05661 1000.05 0.0011349 -0.0875421 10566.1 0 0 0 
0.00195312 0.185547 1000.05 4.00847e-06 0.999996 1000.05 1.05386 1000.05 0.00115847 -0.0899329 10538.6 0 0 0 
0.00195312 0.189453 1000.04 8.02652e-06 0.999992 1000.05 1.05112 1000.04 0.00118531 -0.0923699 10511.2 0 0 0 
0.00195312 0.193359 1000.03 1.40865e-05 0.999987 1000.05 1.04837 1000.03 0.00121515 -0.0948594 10483.7 0 0 0 
0.00195312 0.197266 1000.02 2.20249e-05 0.999979 1000.05 1.04562 1000.02 0.00124696 -0.0974064 10456.2 0 0 0 
0.00195312 0.201172 1000.01 3.1895e-05 0.999969 1000.04 1.04287 1000.01 0.00127894 -0.100013 10428.7 0 0 0 
0.00195312 0.205078 999.997 4.45211e-05 0.999957 1000.04 1.04012 999.997 0.00130874 -0.102678 10401.2 0 0 0 
0.00195312 0.208984 999.978 6.2019e-05 0.99994 1000.04 1.03737 999.978 0.00133369 -0.105394 10373.7 0 0 0 
0.00195312 0.212891 999.891 0.000148357 0.999857 1000.03 1.03463 999.891 0.00135138 -0.108151 10346.3 0 0 0 
0.00195312 0.216797 999.514 0.00053399 0.999483 1000.03 1.03189 999.515 0.00136114 -0.110945 10318.9 0 0 0 
0.00195312 0.220703 998.684 0.00138439 0.998655 1000.03 1.02916 998.685 0.00136595 -0.113785 10291.6 0 0 0 
0.00195312 0.224609 997.358 0.00273888 0.997332 1000.03 1.02642 997.361 0.00137113 -0.116694 10264.2 0 0 0 
0.00195312 0.228516 995.598 0.00453063 0.995574 1000.02 1.02367 995.602 0.0013803 -0.119691 10236.7 0 0 0 
0.00195312 0.232422 993.477 0.00668033 0.993456 1000.02 1.02091 993.484 0.00139209 -0.122793 10209.1 0 0 0 
0.00195312 0.236328 990.859 0.00932562 0.990841 1000.02 1.01814 990.868 0.0013994 -0.125995 10181.4 0 0 0 
0.00195312 0.240234 986.792 0.0134258 0.986777 1000.02 1.01535 986.806 0.00139161 -0.129296 10153.5 0 0 0 
0.00195312 0.244141 977.432 0.0228642 0.97742 1000.01 1.01257 977.455 0.00135948 -0.132725 10125.7 0 0 0.349994 
0.00195312 0.248047 955.168 0.0452795 0.955158 1000.01 1.00976 955.213 0.00130096 -0.136466 10097.6 0 0 0.35 
0.00195312 0.251953 902.781 0.0979124 0.902775 1000.01 1.00707 902.879 0.00122484 -0.140769 10070.7 0 0 0.35 
0.00195312 0.255859 754.881 0.246218 0.754878 1000 1.00447 755.127 0.00114779 -0.146135 10044.7 0 0 0.35 
0.00195312 0.259766 452.098 0.54914 0.452097 1000 1.00226 452.647 0.00109775 -0.152989 10022.6 0 0 0.35 
0.00195312 0.263672 185.694 0.815157 0.185694 1000 1.00105 186.509 0.00109908 -0.159461 10010.5 0 0 0.35 
0.00195312 0.267578 74.7867 0.925677 0.0747867 1000 1.0005 75.7124 0.00115451 -0.164245 10005 0 0 0.35 
0.00195312 0.271484 34.7803 0.965471 0.0347803 1000 1.00026 35.7457 0.00124201 -0.168197 10002.6 0 0 0.35 
0.00195312 0.275391 18.0634 0.982072 0.0180634 1000 1.00014 19.0454 0.00132211 -0.171778 10001.4 0 0 0.340814 
0.00195312 0.279297 11.0611 0.989006 0.0110611 1000 1.00007 12.0501 0.00134898 -0.175153 10000.7 0 0 0 
0.00195312 0.283203 7.92446 0.992096 0.00792446 1000 1.00002 8.91656 0.00127616 -0.178282 10000.2 0 0 0 
0.00195312 0.287109 5.82229 0.994164 0.00582229 1000 0.999986 6.81645 0.00106424 -0.180958 9999.86 0 0 0 
0.00195312 0.291016 4.05708 0.995906 0.00405708 1000 0.999962 5.05298 0.000696626 -0.182938 9999.62 0 0 0 
0.00195312 0.294922 2.52937 0.997418 0.00252937 1000 0.999947 3.52679 0.000190727 -0.183948 9999.47 0 0 0 
0.00195312 0.298828 1.32042 0.998617 0.00132042 1000 0.999937 2.31904 -0.000395436 -0.183796 9999.37 0 0 0 
0.00195312 0.302734 0.522044 0.99941 0.000522044 1000 0.999932 1.52145 -0.000964581 -0.182442 9999.32 0 0 0 
0.00195312 0.306641 0.13985 0.999789 0.00013985 1000 0.999929 1.13964 -0.00146123 -0.179991 9999.29 0 0 0 
0.00195312 0.310547 0.0454997 0.999881 4.54997e-05 1000 0.999926 1.04538 -0.00184808 -0.176638 9999.26 0 0 0 
0.00195312 0.314453 0.0283356 0.999896 2.83356e-05 1000 0.999924 1.02823 -0.00210889 -0.172623 9999.24 0 0 0 
0.00195312 0.318359 0.0212965 0.999902 2.12965e-05 1000 0.999923 1.0212 -0.00226129 -0.168191 9999.23 0 0 0 
0.00195312 0.322266 0.0181772 0.999904 1.81772e-05 1000 0.999922 1.01808 -0.00234251 -0.163521 9999.22 0 0 0.000541056 
0.00195312 0.326172 0.0158985 0.999905 1.58985e-05 1000 0.999921 1.0158 -0.00238337 -0.158725 9999.21 0 0 0.000541056 
0.00195312 0.330078 0.0126583 0.999908 1.26583e-05 1000 0.999921 1.01257 -0.00239831 -0.153869 9999.21 0 0 0 
0.00195312 0.333984 0.00816492 0.999913 8.16492e-06 1000 0.999921 1.00808 -0.00239109 -0.149001 9999.21 0 0 0 
0.00195312 0.337891 0.00372418 0.999918 3.72418e-06 1000 0.999921 1.00364 -0.00236407 -0.144166 9999.21 0 -0.00110976 0 
0.00195312 0.341797 0.00160729 0.99992 1.60729e-06 1000 0.999922 1.00153 -0.0023226 -0.139401 9999.22 0 0 0 
0.00195312 0.345703 0.00129863 0.999921 1.29863e-06 1000 0.999923 1.00122 -0.00227372 -0.13473 9999.23 0 0 0 
0.00195312 0.349609 0.00120488 0.999922 1.20488e-06 1000 0.999923 1.00113 -0.00222333 -0.130162 9999.23 0 0 0 
0.00195312 0.353516 0.00114227 0.999923 1.14227e-06 1000 0.999925 1.00107 -0.002175 -0.125698 9999.25 0 0 0 
0.00195312 0.357422 0.00109463 0.999925 1.09463e-06 1000 0.999926 1.00102 -0.00213043 -0.121333 9999.26 0 0 0 
0.00195312 0.361328 0.00105842 0.999926 1.05842e-06 1000 0.999927 1.00098 -0.00209038 -0.11706 9999.27 0 0 -0.000321748 
0.00195312 0.365234 0.00103348 0.999928 1.03348e-06 1000 0.999929 1.00096 -0.00205515 -0.112869 9999.29 0 0 -0.000321748 
0.00195312 0.369141 0.00101819 0.99993 1.01819e-06 1000 0.999931 1.00095 -0.00202445 -0.108753 9999.31 0 0 0 
0.00195312 0.373047 0.00100948 0.999931 1.00948e-06 1000 0.999932 1.00094 -0.00199728 -0.104703 9999.32 0 0 0.000149128 
0.00195312 0.376953 0.00100459 0.999933 1.00459e-06 1000 0.999934 1.00094 -0.00197215 -0.100715 9999.34 0 0.000813824 0.000149128 
0.00195312 0.380859 0.00100188 0.999935 1.00188e-06 1000 0.999936 1.00094 -0.00194762 -0.096787 9999.36 0 0 0 
0.00195312 0.384766 0.00100055 0.999937 1.00055e-06 1000 0.999938 1.00094 -0.00192276 -0.0929192 9999.38 0 0 0 
0.00195312 0.388672 0.00100008 0.999939 1.00008e-06 1000 0.99994 1.00094 -0.00189732 -0.0891131 9999.4 0 0 9.31713e-05 
0.00195312 0.392578 0.001 0.999941 1e-06 1000 0.999942 1.00094 -0.00187159 -0.0853704 9999.42 0 0 9.31713e-05 
0.00195312 0.396484 0.00100003 0.999943 1.00003e-06 1000 0.999944 1.00094 -0.00184617 -0.0816916 9999.44 0 0 0 
0.00195312 0.400391 0.00100007 0.999945 1.00007e-06 1000 0.999946 1.00094 -0.00182166 -0.0780761 9999.46 0 0 0 
0.00195312 0.404297 0.00100008 0.999946 1.00008e-06 1000 0.999947 1.00095 -0.00179855 -0.074522 9999.47 0 0 0 
0.00195312 0.408203 0.00100007 0.999948 1.00007e-06 1000 0.999949 1.00095 -0.00177706 -0.0710261 9999.49 0 0 0 
0.00195312 0.412109 0.00100004 0.99995 1.00004e-06 1000 0.999951 1.00095 -0.00175718 -0.0675852 9999.51 0 0 0 
0.00195312 0.416016 0.001 0.999951 1e-06 1000 0.999952 1.00095 -0.00173875 -0.064196 9999.52 0 0 -0.000858773 
0.00195312 0.419922 0.000999967 0.999953 9.99967e-07 1000 0.999954 1.00095 -0.0017215 -0.0608563 9999.54 0 0 -0.000858773 
0.00195312 0.423828 0.000999946 0.999954 9.99946e-07 1000 0.999955 1.00095 -0.00170521 -0.0575643 9999.55 0 0 0 
0.00195312 0.427734 0.000999935 0.999955 9.99935e-07 1000 0.999956 1.00096 -0.00168972 -0.0543183 9999.56 0 0 0.0011628 
0.00195312 0.431641 0.000999933 0.999956 9.99933e-07 1000 0.999957 1.00096 -0.00167497 -0.0511168 9999.57 0 0 0.00117452 
0.00195312 0.435547 0.000999935 0.999957 9.99935e-07 1000 0.999958 1.00096 -0.00166101 -0.0479578 9999.58 0 0 0.00211962 
0.00195312 0.439453 0.00099994 0.999958 9.9994e-07 1000 0.999959 1.00096 -0.00164789 -0.0448393 9999.59 0 0 0.00278191 
0.00195312 0.443359 0.000999947 0.999959 9.99947e-07 1000 0.99996 1.00096 -0.00163566 -0.0417593 9999.6 0 0 0.000674012 
0.00195312 0.447266 0.000999954 0.999959 9.99954e-07 1000 0.99996 1.00096 -0.00162434 -0.0387155 9999.6 0 0 0 
0.00195312 0.451172 0.000999963 0.999959 9.99963e-07 1000 0.99996 1.00096 -0.00161388 -0.0357061 9999.6 0 0 0 
0.00195312 0.455078 0.000999975 0.99996 9.99975e-07 1000 0.999961 1.00096 -0.00160422 -0.0327284 9999.61 0 0 0 
0.00195312 0.458984 0.000999992 0.999959 9.99992e-07 1000 0.99996 1.00096 -0.00159529 -0.0297808 9999.6 0 0 8.1158e-05 
0.00195312 0.462891 0.00100001 0.999959 1.00001e-06 1000 0.99996 1.00096 -0.00158704 -0.0268603 9999.6 0 0 -5.23169e-06 
0.00195312 0.466797 0.00100004 0.999959 1.00004e-06 1000 0.99996 1.00096 -0.00157947 -0.0239663 9999.6 0 0 -8.63897e-05 
0.00195312 0.470703 0.00100005 0.999958 1.00005e-06 1000 0.999959 1.00096 -0.00157266 -0.0210936 9999.59 0 0 0 
0.00195312 0.474609 0.00100006 0.999957 1.00006e-06 1000 0.999958 1.00096 -0.00156675 -0.0182449 9999.58 0 0 0 
0.00195312 0.478516 0.00100005 0.999956 1.00005e-06 1000 0.999957 1.00096 -0.0015619 -0.0154087 9999.57 0 0 0 
0.00195312 0.482422 0.00100001 0.999955 1.00001e-06 1000 0.999956 1.00095 -0.00155821 -0.0125967 9999.56 0 0 0 
0.00195312 0.486328 0.000999951 0.999953 9.99951e-07 1000 0.999954 1.00095 -0.00155571 -0.00978157 9999.54 0 0 0 
0.00195312 0.490234 0.000999876 0.999951 9.99876e-07 1000 0.999952 1.00095 -0.0015543 -0.00700826 9999.52 0 0 0.000689403 
0.00195312 0.494141 0.000999804 0.99995 9.99804e-07 1000 0.999951 1.00095 -0.00155369 -0.0042155 9999.51 0 0 0.000689403 
0.00195312 0.498047 0.000999757 0.999947 9.99757e-07 1000 0.999948 1.00095 -0.00155354 -0.00155866 9999.48 0 0 0 
0.00585938 0.00195312 1000.18 9.34502e-07 0.999999 1000.18 1.17732 1000.18 0.00212501 -0.000990296 11773.2 0 0 0 
0.00585938 0.00585938 1000.17 9.46237e-07 0.999999 1000.17 1.17416 1000.17 0.00212564 -0.00248645 11741.6 0 0 0 
0.00585938 0.00976562 1000.17 9.84264e-07 0.999999 1000.17 1.17241 1000.17 0.00212758 -0.00415711 11724.1 0 0 0 
0.00585938 0.0136719 1000.17 1.02481e-06 0.999999 1000.17 1.16973 1000.17 0.0021313 -0.00575803 11697.3 0 0 0 
0.00585938 0.0175781 1000.17 1.03989e-06 0.999999 1000.17 1.16745 1000.17 0.00213693 -0.00742128 11674.5 0 0 0 
0.00585938 0.0214844 1000.16 1.03392e-06 0.999999 1000.16 1.16487 1000.16 0.0021443 -0.00906332 11648.7 0 0 0 
0.00585938 0.0253906 1000.16 1.02458e-06 0.999999 1000.16 1.16243 1000.16 0.00215303 -0.0107278 11624.3 0 0 0 
0.00585938 0.0292969 1000.16 1.01568e-06 0.999999 1000.16 1.15989 1000.16 0.00216274 -0.0123887 11598.9 0 0 0 
0.00585938 0.0332031 1000.16 1.00826e-06 0.999999 1000.16 1.1574 1000.16 0.00217311 -0.0140611 11574 0 0 0 
0.00585938 0.0371094 1000.15 1.00281e-06 0.999999 1000.15 1.15487 1000.15 0.00218399 -0.0157366 11548.7 0 0 0.000503459 
0.00585938 0.0410156 1000.15 9.99399e-07 0.999999 1000.15 1.15235 1000.15 0.00219539 -0.0174202 11523.5 0 0 0.000503459 
0.00585938 0.0449219 1000.15 9.97771e-07 0.999999 1000.15 1.1498 1000.15 0.00220745 -0.0191095 11498 0 0 0 
0.00585938 0.0488281 1000.15 9.97508e-07 0.999999 1000.15 1.14726 1000.15 0.00222038 -0.0208064 11472.6 0 0 0 
0.00585938 0.0527344 1000.14 9.98107e-07 0.999999 1000.14 1.14471 1000.14 0.00223437 -0.0225105 11447.1 0 0 0 
0.00585938 0.0566406 1000.14 9.9908e-07 0.999999 1000.14 1.14215 1000.14 0.0022496 -0.0242231 11421.5 0 0 0.00397509 
0.00585938 0.0605469 1000.14 1.00005e-06 0.999999 1000.14 1.13958 1000.14 0.00226612 -0.0259444 11395.8 0 0 0.00397509 
0.00585938 0.0644531 1000.14 1.00077e-06 0.999999 1000.14 1.13701 1000.14 0.00228395 -0.0276755 11370.1 0 0 0 
0.00585938 0.0683594 1000.13 1.00117e-06 0.999999 1000.13 1.13442 1000.13 0.00230306 -0.0294171 11344.2 0 0 0 
0.00585938 0.0722656 1000.13 1.00127e-06 0.999999 1000.13 1.13183 1000.13 0.00232337 -0.0311698 11318.3 0 0 0 
0.00585938 0.0761719 1000.13 1.00117e-06 0.999999 1000.13 1.12923 1000.13 0.00234482 -0.0329343 11292.3 0 0 0 
0.00585938 0.0800781 1000.13 1.00097e-06 0.999999 1000.13 1.12663 1000.13 0.00236737 -0.0347113 11266.3 0 0 -0.00427455 
0.00585938 0.0839844 1000.12 1.00074e-06 0.999999 1000.12 1.12401 1000.12 0.00239101 -0.0365013 11240.1 0 0 -0.00427455 
0.00585938 0.0878906 1000.12 1.00055e-06 0.999999 1000.12 1.12139 1000.12 0.00241574 -0.038305 11213.9 0 0 0 
0.00585938 0.0917969 1000.12 1.0004e-06 0.999999 1000.12 1.11876 1000.12 0.0024416 -0.040123 11187.6 0 0 0 
0.00585938 0.0957031 1000.12 1.0003e-06 0.999999 1000.12 1.11612 1000.12 0.00246864 -0.041956 11161.2 0 0 0 
0.00585938 0.0996094 1000.11 1.00024e-06 0.999999 1000.11 1.11347 1000.11 0.00249687 -0.0438045 11134.7 0 0 0 
0.00585938 0.103516 1000.11 1.00024e-06 0.999999 1000.11 1.11082 1000.11 0.00252633 -0.0456695 11108.2 0 0 0 
0.00585938 0.107422 1000.11 1.00029e-06 0.999999 1000.11 1.10816 1000.11 0.00255703 -0.0475514 11081.6 0 0 0 
0.00585938 0.111328 1000.1 1.00042e-06 0.999999 1000.11 1.10549 1000.1 0.00258895 -0.0494512 11054.9 0 0 0.00251165 
0.00585938 0.115234 1000.1 1.00064e-06 0.999999 1000.1 1.10281 1000.1 0.00262205 -0.0513694 11028.1 0 0 0.00251165 
0.00585938 0.119141 1000.1 1.0009e-06 0.999999 1000.1 1.10012 1000.1 0.00265629 -0.0533068 11001.2 0 0 0 
0.00585938 0.123047 1000.1 1.00113e-06 0.999999 1000.1 1.09743 1000.1 0.00269167 -0.055264 10974.3 0 0 0.00136663 
0.00585938 0.126953 1000.09 1.00127e-06 0.999999 1000.09 1.09474 1000.09 0.00272821 -0.0572416 10947.4 0 0 0.00214789 
0.00585938 0.130859 1000.09 1.00123e-06 0.999999 1000.09 1.09204 1000.09 0.00276602 -0.0592404 10920.4 0 0 0.000781259 
0.00585938 0.134766 1000.09 1.00099e-06 0.999999 1000.09 1.08934 1000.09 0.00280525 -0.061261 10893.4 0 0 0 
0.00585938 0.138672 1000.09 1.00052e-06 0.999999 1000.09 1.08664 1000.09 0.00284611 -0.0633043 10866.4 0 0 0 
0.00585938 0.142578 1000.08 9.99928e-07 0.999999 1000.08 1.08393 1000.08 0.00288874 -0.0653713 10839.3 0 0 0 
0.00585938 0.146484 1000.08 9.99735e-07 0.999999 1000.08 1.08123 1000.08 0.00293319 -0.067463 10812.3 0 0 0 
0.00585938 0.150391 1000.08 1.00162e-06 0.999999 1000.08 1.07852 1000.08 0.0029793 -0.0695804 10785.2 0 0 0.00131415 
0.00585938 0.154297 1000.07 1.00819e-06 0.999999 1000.08 1.07581 1000.07 0.0030267 -0.0717245 10758.1 0 0 0.00131415 
0.00585938 0.158203 1000.07 1.02165e-06 0.999999 1000.07 1.0731 1000.07 0.00307486 -0.073896 10731 0 0 0 
0.00585938 0.162109 1000.07 1.04362e-06 0.999999 1000.07 1.07039 1000.07 0.00312334 -0.0760952 10703.9 0 0 0 
0.00585938 0.166016 1000.07 1.07626e-06 0.999999 1000.07 1.06767 1000.07 0.003172 -0.0783224 10676.7 0 -0.00155144 0 
0.00585938 0.169922 1000.06 1.12497e-06 0.999999 1000.06 1.06495 1000.06 0.00322132 -0.0805781 10649.5 0 0.000405851 0 
0.00585938 0.173828 1000.06 1.2051e-06 0.999999 1000.06 1.06223 1000.06 0.0032726 -0.0828632 10622.3 0 0.00157923 0 
0.00585938 0.177734 1000.06 1.35964e-06 0.999999 1000.06 1.0595 1000.06 0.00332786 -0.0851796 10595 0 0 0 
0.00585938 0.181641 1000.05 1.97033e-06 0.999998 1000.06 1.05676 1000.05 0.0033895 -0.0875306 10567.6 0 0 0 
0.00585938 0.185547 1000.05 4.00692e-06 0.999996 1000.05 1.05402 1000.05 0.00345962 -0.0899209 10540.2 0 0 0 
0.00585938 0.189453 1000.04 8.02497e-06 0.999992 1000.05 1.05128 1000.04 0.00353922 -0.0923562 10512.8 0 0 0 
0.00585938 0.193359 1000.04 1.40852e-05 0.999987 1000.05 1.04853 1000.04 0.00362743 -0.0948422 10485.3 0 0 0 
0.00585938 0.197266 1000.02 2.20241e-05 0.999979 1000.05 1.04578 1000.02 0.00372106 -0.097383 10457.8 0 0 0 
0.00585938 0.201172 1000.01 3.18946e-05 0.999969 1000.04 1.04303 1000.01 0.00381467 -0.0999798 10430.3 0 0 0 
0.00585938 0.205078 999.997 4.4517e-05 0.999957 1000.04 1.04028 999.998 0.00390116 -0.102629 10402.8 0 0 0 
0.00585938 0.208984 999.978 6.19954e-05 0.99994 1000.04 1.03753 999.978 0.003973 -0.105325 10375.3 0 0 0 
0.00585938 0.212891 999.892 0.000148247 0.999857 1000.03 1.03478 999.892 0.0040244 -0.108056 10347.8 0 0 0 
0.00585938 0.216797 999.515 0.000533611 0.999483 1000.03 1.03203 999.515 0.00405518 -0.110824 10320.3 0 0 0 
0.00585938 0.220703 998.685 0.00138357 0.998656 1000.03 1.02927 998.686 0.00407398 -0.113645 10292.7 0 0 0 
0.00585938 0.224609 997.359 0.00273764 0.997333 1000.03 1.02651 997.362 0.00409439 -0.116544 10265.1 0 0 0 
0.00585938 0.228516 995.599 0.00452924 0.995576 1000.02 1.02374 995.604 0.00412515 -0.11954 10237.4 0 0 0 
0.00585938 0.232422 993.479 0.00667922 0.993458 1000.02 1.02097 993.485 0.00416133 -0.122643 10209.7 0 -0.000468694 0 
0.00585938 0.236328 990.86 0.00932496 0.990842 1000.02 1.01819 990.869 0.0041821 -0.125847 10181.9 0 0 0 
0.00585938 0.240234 986.794 0.0134244 0.986779 1000.02 1.01539 986.808 0.00415696 -0.129146 10153.9 0 0 0 
0.00585938 0.244141 977.438 0.0228584 0.977426 1000.01 1.0126 977.461 0.00406028 -0.132571 10126 0 0 0.349993 
0.00585938 0.248047 955.187 0.0452613 0.955177 1000.01 1.00978 955.232 0.00388579 -0.136307 10097.8 0 0 0.35 
0.00585938 0.251953 902.832 0.0978624 0.902825 1000.01 1.00708 902.93 0.00365739 -0.140609 10070.8 0 0 0.35 
0.00585938 0.255859 755.022 0.246077 0.755018 1000 1.00447 755.268 0.00342967 -0.145979 10044.7 0 0 0.35 
0.00585938 0.259766 452.3 0.548939 0.452299 1000 1.00226 452.849 0.00329138 -0.152851 10022.6 0 0 0.35 
0.00585938 0.263672 185.794 0.815059 0.185793 1000 1.00105 186.609 0.00330991 -0.159371 10010.5 0 0 0.35 
0.00585938 0.267578 74.8145 0.92565 0.0748144 1000 1.0005 75.7401 0.00348269 -0.164223 10005 0 0 0.35 
0.00585938 0.271484 34.7889 0.965463 0.0347889 1000 1.00026 35.7544 0.00373836 -0.168243 10002.6 0 0 0.35 
0.00585938 0.275391 18.0644 0.982071 0.0180644 1000 1.00014 19.0465 0.0039663 -0.171877 10001.4 0 0 0.341401 
0.00585938 0.279297 11.0599 0.989007 0.0110599 1000 1.00007 12.0489 0.00403652 -0.175286 10000.7 0 0.000580919 0 
0.00585938 0.283203 7.92325 0.992097 0.00792325 1000 1.00002 8.91535 0.00380923 -0.178429 10000.2 0 0 0 
0.00585938 0.287109 5.82122 0.994165 0.00582122 1000 0.999986 6.81539 0.00316284 -0.181094 9999.86 0 0 0 
0.00585938 0.291016 4.05626 0.995906 0.00405626 1000 0.999962 5.05217 0.0020521 -0.183035 9999.62 0 0 0 
0.00585938 0.294922 2.52886 0.997418 0.00252886 1000 0.999947 3.52627 0.000549897 -0.183986 9999.47 0 0 0 
0.00585938 0.298828 1.32019 0.998617 0.00132019 1000 0.999937 2.3188 -0.00116587 -0.183795 9999.37 0 0 0 
0.00585938 0.302734 0.521987 0.99941 0.000521987 1000 0.999931 1.5214 -0.002858 -0.182424 9999.31 0 0 0 
0.00585938 0.306641 0.139858 0.999788 0.000139858 1000 0.999928 1.13965 -0.00433969 -0.179962 9999.28 0 0 0 
0.00585938 0.310547 0.0455164 0.99988 4.55164e-05 1000 0.999926 1.0454 -0.00549232 -0.176604 9999.26 0 0 0 
0.00585938 0.314453 0.0283487 0.999896 2.83487e-05 1000 0.999924 1.02824 -0.00626875 -0.172588 9999.24 0 0 0 
0.00585938 0.318359 0.021302 0.999901 2.13021e-05 1000 0.999923 1.0212 -0.00672353 -0.16816 9999.23 0 0 0 
0.00585938 0.322266 0.0181694 0.999903 1.81695e-05 1000 0.999922 1.01807 -0.00696799 -0.163493 9999.22 0 0 0.000541056 
0.00585938 0.326172 0.0158755 0.999905 1.58755e-05 1000 0.999921 1.01578 -0.00709154 -0.158697 9999.21 0 0 0.000541056 
0.00585938 0.330078 0.0126333 0.999908 1.26333e-05 1000 0.999921 1.01254 -0.00713624 -0.15384 9999.21 0 0 0 
0.00585938 0.333984 0.00815389 0.999912 8.15389e-06 1000 0.999921 1.00807 -0.00711413 -0.148973 9999.21 0 0 0 
0.00585938 0.337891 0.0037278 0.999917 3.7278e-06 1000 0.999921 1.00364 -0.00703329 -0.144142 9999.21 0 -0.00110976 0 
0.00585938 0.341797 0.00161129 0.99992 1.61129e-06 1000 0.999921 1.00153 -0.00690994 -0.139381 9999.21 0 -0.000533965 0 
0.00585938 0.345703 0.00129967 0.999921 1.29967e-06 1000 0.999922 1.00122 -0.00676479 -0.134713 9999.22 0 0 0 
0.00585938 0.349609 0.00120498 0.999922 1.20498e-06 1000 0.999923 1.00113 -0.00661517 -0.130148 9999.23 0 0 0 
0.00585938 0.353516 0.00114227 0.999923 1.14227e-06 1000 0.999924 1.00107 -0.00647162 -0.125685 9999.24 0 -0.000758027 0 
0.00585938 0.357422 0.00109474 0.999924 1.09474e-06 1000 0.999926 1.00102 -0.00633921 -0.12132 9999.26 0 8.2805e-05 0 
0.00585938 0.361328 0.00105859 0.999926 1.05859e-06 1000 0.999927 1.00098 -0.00622023 -0.117046 9999.27 0 0 -0.000241311 
0.00585938 0.365234 0.00103359 0.999928 1.03359e-06 1000 0.999929 1.00096 -0.00611552 -0.112855 9999.29 0 0 -0.000241311 
0.00585938 0.369141 0.00101822 0.999929 1.01822e-06 1000 0.99993 1.00095 -0.00602415 -0.108737 9999.3 0 -0.000854917 0 
0.00585938 0.373047 0.00100944 0.999931 1.00944e-06 1000 0.999932 1.00094 -0.00594314 -0.104687 9999.32 0 0 0.000149128 
0.00585938 0.376953 0.00100451 0.999933 1.00451e-06 1000 0.999934 1.00094 -0.00586812 -0.100699 9999.34 0 0 0.000149128 
0.00585938 0.380859 0.0010018 0.999935 1.0018e-06 1000 0.999936 1.00094 -0.00579491 -0.0967708 9999.36 0 0 -0.000642726 
0.00585938 0.384766 0.00100049 0.999937 1.00049e-06 1000 0.999938 1.00094 -0.00572079 -0.0929038 9999.38 0 0 -0.000642726 
0.00585938 0.388672 0.00100007 0.999939 1.00007e-06 1000 0.99994 1.00094 -0.00564506 -0.0890989 9999.4 0 0 6.98784e-05 
0.00585938 0.392578 0.00100001 0.999941 1.00001e-06 1000 0.999942 1.00094 -0.00556858 -0.0853573 9999.42 0 0 6.98784e-05 
0.00585938 0.396484 0.00100003 0.999942 1.00003e-06 1000 0.999943 1.00094 -0.00549306 -0.0816795 9999.43 0 0 0 
0.00585938 0.400391 0.00100007 0.999944 1.00007e-06 1000 0.999945 1.00094 -0.0054203 -0.0780647 9999.45 0 0 0 
0.00585938 0.404297 0.00100008 0.999946 1.00008e-06 1000 0.999947 1.00095 -0.00535163 -0.0745112 9999.47 0 0 0 
0.00585938 0.408203 0.00100007 0.999948 1.00007e-06 1000 0.999949 1.00095 -0.00528774 -0.0710157 9999.49 0 0 0 
0.00585938 0.412109 0.00100003 0.99995 1.00003e-06 1000 0.999951 1.00095 -0.00522863 -0.0675752 9999.51 0 0 0 
0.00585938 0.416016 0.000999997 0.999951 9.99997e-07 1000 0.999952 1.00095 -0.0051738 -0.0641864 9999.52 0 0 -0.00061433 
0.00585938 0.419922 0.000999965 0.999953 9.99965e-07 1000 0.999954 1.00095 -0.00512251 -0.0608471 9999.54 0 0 -0.00061433 
0.00585938 0.423828 0.000999944 0.999954 9.99944e-07 1000 0.999955 1.00095 -0.00507408 -0.0575555 9999.55 0 0 0 
0.00585938 0.427734 0.000999934 0.999955 9.99934e-07 1000 0.999956 1.00096 -0.00502807 -0.05431 9999.56 0 0 0.000872099 
0.00585938 0.431641 0.000999931 0.999956 9.99931e-07 1000 0.999957 1.00096 -0.00498431 -0.051109 9999.57 0 0 0.000883824 
0.00585938 0.435547 0.000999934 0.999957 9.99934e-07 1000 0.999958 1.00096 -0.00494287 -0.0479505 9999.58 0 0 0.00158597 
0.00585938 0.439453 0.000999939 0.999958 9.99939e-07 1000 0.999959 1.00096 -0.00490393 -0.0448325 9999.59 0 0 0.0021136 
0.00585938 0.443359 0.000999945 0.999958 9.99945e-07 1000 0.999959 1.00096 -0.00486764 -0.041753 9999.59 0 0 0.00053935 
0.00585938 0.447266 0.000999952 0.999959 9.99952e-07 1000 0.99996 1.00096 -0.00483403 -0.0387097 9999.6 0 0 0 
0.00585938 0.451172 0.000999961 0.999959 9.99961e-07 1000 0.99996 1.00096 -0.00480299 -0.0357007 9999.6 0 0 0 
0.00585938 0.455078 0.000999973 0.999959 9.99973e-07 1000 0.99996 1.00096 -0.00477431 -0.0327235 9999.6 0 0 0 
0.00585938 0.458984 0.00099999 0.999959 9.9999e-07 1000 0.99996 1.00096 -0.00474776 -0.0297764 9999.6 0 0 8.1158e-05 
0.00585938 0.462891 0.00100001 0.999959 1.00001e-06 1000 0.99996 1.00096 -0.00472319 -0.0268563 9999.6 0 0 -5.23169e-06 
0.00585938 0.466797 0.00100003 0.999958 1.00003e-06 1000 0.999959 1.00096 -0.00470065 -0.0239628 9999.59 0 0 -8.63897e-05 
0.00585938 0.470703 0.00100005 0.999958 1.00005e-06 1000 0.999959 1.00096 -0.00468038 -0.0210906 9999.59 0 0 0 
0.00585938 0.474609 0.00100006 0.999957 1.00006e-06 1000 0.999958 1.00096 -0.00466278 -0.0182424 9999.58 0 0 0 
0.00585938 0.478516 0.00100005 0.999956 1.00005e-06 1000 0.999957 1.00096 -0.0046483 -0.0154066 9999.57 0 0 0 
0.00585938 0.482422 0.00100001 0.999954 1.00001e-06 1000 0.999955 1.00095 -0.00463731 -0.012595 9999.55 0 0 0 
0.00585938 0.486328 0.00099995 0.999953 9.9995e-07 1000 0.999954 1.00095 -0.00462986 -0.00978029 9999.54 0 0 0 
0.00585938 0.490234 0.000999874 0.999951 9.99874e-07 1000 0.999952 1.00095 -0.00462564 -0.00700737 9999.52 0 0 0.00137826 
0.00585938 0.494141 0.000999802 0.99995 9.99802e-07 1000 0.999951 1.00095 -0.00462384 -0.00421498 9999.51 0 0 0.00137826 
0.00585938 0.498047 0.000999755 0.999946 9.99755e-07 1000 0.999947 1.00095 -0.00462342 -0.00155849 9999.47 0 0 0 
0.00976562 0.00195312 1000.18 9.34151e-07 0.999999 1000.18 1.17731 1000.18 0.00353992 -0.000989863 11773.1 0 0 0 
0.00976562 0.00585938 1000.17 9.45882e-07 0.999999 1000.17 1.17415 1000.17 0.00354094 -0.00248514 11741.5 0 0 0 
0.00976562 0.00976562 1000.17 9.83894e-07 0.999999 1000.17 1.1724 1000.17 0.00354417 -0.00415491 11724 0 0 0 
0.00976562 0.0136719 1000.17 1.02442e-06 0.999999 1000.17 1.16972 1000.17 0.00355037 -0.00575491 11697.2 0 0 0 
0.00976562 0.0175781 1000.17 1.03949e-06 0.999999 1000.17 1.16744 1000.17 0.00355976 -0.00741725 11674.4 0 0 0 
0.00976562 0.0214844 1000.16 1.03353e-06 0.999999 1000.16 1.16485 1000.16 0.00357205 -0.00905838 11648.5 0 0 0 
0.00976562 0.0253906 1000.16 1.0242e-06 0.999999 1000.16 1.16242 1000.16 0.00358662 -0.010722 11624.2 0 0 0 
0.00976562 0.0292969 1000.16 1.0153e-06 0.999999 1000.16 1.15988 1000.16 0.00360281 -0.012382 11598.8 0 0 0 