TITLE=FvSolution
VARIABLES=X Y RHO1Z1 RHO2Z2 Z1 RHO1 RHO2 RHO U V PRE theta lambdaX lambdaY 
ZONE T=TA, I=128, J=128, DATAPACKING = POINT
0.00195312 0.00195312 1000.1 9.41905e-07 0.999999 1000.1 1.09711 1000.1 0.000171136 -0.000391963 10971.1 0 0 0 
0.00195312 0.00585938 1000.09 9.5244e-07 0.999999 1000.09 1.09411 1000.09 0.000171889 -0.000674113 10941.1 0 0 0 
0.00195312 0.00976562 1000.09 9.86651e-07 0.999999 1000.09 1.09232 1000.09 0.000173451 -0.00114799 10923.2 0 0 0 
0.00195312 0.0136719 1000.09 1.02316e-06 0.999999 1000.09 1.08974 1000.09 0.000175474 -0.00155625 10897.4 0 0 0 
0.00195312 0.0175781 1000.09 1.03661e-06 0.999999 1000.09 1.08758 1000.09 0.000177551 -0.00202198 10875.8 0 0 0 
0.00195312 0.0214844 1000.08 1.03161e-06 0.999999 1000.09 1.08518 1000.08 0.000179422 -0.00246809 10851.8 0 0 0 
0.00195312 0.0253906 1000.08 1.0239e-06 0.999999 1000.08 1.08294 1000.08 0.000181049 -0.00293374 10829.4 0 0 0 
0.00195312 0.0292969 1000.08 1.01642e-06 0.999999 1000.08 1.08065 1000.08 0.00018254 -0.00339392 10806.5 0 0 0 
0.00195312 0.0332031 1000.08 1.00981e-06 0.999999 1000.08 1.07843 1000.08 0.000184046 -0.00386204 10784.3 0 0 0 
0.00195312 0.0371094 1000.08 1.00446e-06 0.999999 1000.08 1.07621 1000.08 0.000185692 -0.00433006 10762.1 0 0 0 
0.00195312 0.0410156 1000.07 1.00053e-06 0.999999 1000.07 1.07404 1000.07 0.000187542 -0.0048029 10740.4 0 0 0 
0.00195312 0.0449219 1000.07 9.98048e-07 0.999999 1000.07 1.07188 1000.07 0.000189606 -0.00527816 10718.8 0 0 -0.000411033 
0.00195312 0.0488281 1000.07 9.9689e-07 0.999999 1000.07 1.06976 1000.07 0.000191861 -0.00575773 10697.6 0 0 -0.000411033 
0.00195312 0.0527344 1000.07 9.96816e-07 0.999999 1000.07 1.06765 1000.07 0.000194271 -0.00624095 10676.5 0 0 0 
0.00195312 0.0566406 1000.06 9.97496e-07 0.999999 1000.07 1.06558 1000.06 0.000196804 -0.00672852 10655.8 0 0 0 
0.00195312 0.0605469 1000.06 9.98571e-07 0.999999 1000.06 1.06353 1000.06 0.000199447 -0.00722028 10635.3 0 0 0 
0.00195312 0.0644531 1000.06 9.99727e-07 0.999999 1000.06 1.06151 1000.06 0.000202205 -0.00771654 10615.1 0 0 0 
0.00195312 0.0683594 1000.06 1.00074e-06 0.999999 1000.06 1.05952 1000.06 0.000205095 -0.00821734 10595.2 0 0 0 
0.00195312 0.0722656 1000.06 1.00151e-06 0.999999 1000.06 1.05754 1000.06 0.000208139 -0.00872296 10575.4 0 0 0 
0.00195312 0.0761719 1000.05 1.00204e-06 0.999999 1000.06 1.05559 1000.05 0.000211359 -0.00923361 10555.9 0 0 0 
0.00195312 0.0800781 1000.05 1.00238e-06 0.999999 1000.05 1.05367 1000.05 0.000214775 -0.0097496 10536.7 0 0 0 
0.00195312 0.0839844 1000.05 1.00261e-06 0.999999 1000.05 1.05177 1000.05 0.000218407 -0.0102713 10517.7 0 0 0 
0.00195312 0.0878906 1000.05 1.00277e-06 0.999999 1000.05 1.04989 1000.05 0.000222276 -0.010799 10498.9 0 0 0 
0.00195312 0.0917969 1000.05 1.00282e-06 0.999999 1000.05 1.04803 1000.05 0.000226412 -0.0113332 10480.3 0 0 0 
0.00195312 0.0957031 1000.05 1.00275e-06 0.999999 1000.05 1.0462 1000.05 0.00023085 -0.0118744 10462 0 0 0 
0.00195312 0.0996094 1000.04 1.00251e-06 0.999999 1000.04 1.04438 1000.04 0.000235623 -0.0124232 10443.8 0 0 0 
0.00195312 0.103516 1000.04 1.00215e-06 0.999999 1000.04 1.04259 1000.04 0.000240757 -0.0129802 10425.9 0 0 0 
0.00195312 0.107422 1000.04 1.00177e-06 0.999999 1000.04 1.04081 1000.04 0.000246258 -0.0135461 10408.1 0 0 0 
0.00195312 0.111328 1000.04 1.00305e-06 0.999999 1000.04 1.03906 1000.04 0.000252104 -0.0141216 10390.6 0 0 0.00283191 
0.00195312 0.115234 1000.04 1.01141e-06 0.999999 1000.04 1.03732 1000.04 0.000258239 -0.0147073 10373.2 0 0 0.00283191 
0.00195312 0.119141 1000.03 1.03109e-06 0.999999 1000.04 1.0356 1000.03 0.000264587 -0.0153036 10356 0 0 0 
0.00195312 0.123047 1000.03 1.06487e-06 0.999999 1000.03 1.0339 1000.03 0.000271073 -0.0159109 10339 0 0 0 
0.00195312 0.126953 1000.03 1.11503e-06 0.999999 1000.03 1.03222 1000.03 0.000277665 -0.0165293 10322.2 0 0 0 
0.00195312 0.130859 1000.03 1.18529e-06 0.999999 1000.03 1.03056 1000.03 0.000284428 -0.0171591 10305.6 0 0 0 
0.00195312 0.134766 1000.03 1.28521e-06 0.999999 1000.03 1.02891 1000.03 0.000291573 -0.0178008 10289.1 0 0 0 
0.00195312 0.138672 1000.03 1.43986e-06 0.999999 1000.03 1.02728 1000.03 0.000299497 -0.0184555 10272.8 0 0 0 
0.00195312 0.142578 1000.02 1.71148e-06 0.999998 1000.03 1.02567 1000.02 0.000308777 -0.0191253 10256.7 0 0 0 
0.00195312 0.146484 1000.02 2.82516e-06 0.999997 1000.02 1.02407 1000.02 0.000320126 -0.0198136 10240.7 0 0 0 
0.00195312 0.150391 1000.02 6.89032e-06 0.999993 1000.02 1.02249 1000.02 0.000334289 -0.0205254 10224.9 0 0 0 
0.00195312 0.154297 1000.01 1.52653e-05 0.999985 1000.02 1.02092 1000.01 0.000351906 -0.0212671 10209.2 0 0 0 
0.00195312 0.158203 999.992 2.82454e-05 0.999972 1000.02 1.01936 999.992 0.000373314 -0.0220462 10193.6 0 0 0 
0.00195312 0.162109 999.973 4.54284e-05 0.999955 1000.02 1.01783 999.973 0.000398318 -0.0228705 10178.3 0 0 0 
0.00195312 0.166016 999.951 6.63751e-05 0.999935 1000.02 1.0163 999.951 0.000425992 -0.0237464 10163 0 0 0 
0.00195312 0.169922 999.924 9.16692e-05 0.99991 1000.01 1.01479 999.925 0.000454541 -0.0246778 10147.9 0 -0.000692365 0 
0.00195312 0.173828 999.89 0.000124668 0.999877 1000.01 1.0133 999.89 0.000481299 -0.0256637 10133 0 0 0 
0.00195312 0.177734 999.839 0.0001749 0.999827 1000.01 1.01182 999.839 0.000502867 -0.0266981 10118.2 0 0 0 
0.00195312 0.181641 999.657 0.000357316 0.999646 1000.01 1.01036 999.657 0.000515663 -0.0277693 10103.6 0 0 0 
0.00195312 0.185547 999.007 0.00101122 0.998998 1000.01 1.00892 999.008 0.000517594 -0.0288707 10089.2 0 0 0 
0.00195312 0.189453 997.691 0.00233434 0.997683 1000.01 1.0075 997.693 0.000509878 -0.0300068 10075 0 0 0 
0.00195312 0.193359 995.736 0.00429576 0.99573 1000.01 1.00612 995.741 0.000496065 -0.0311859 10061.2 0 0 0 
0.00195312 0.197266 993.328 0.00670897 0.993323 1000 1.00478 993.334 0.000479405 -0.0324147 10047.8 0 0 0 
0.00195312 0.201172 990.645 0.0093909 0.990642 1000 1.00351 990.655 0.000461126 -0.0336916 10035.1 0 -0.000414978 0 
0.00195312 0.205078 987.615 0.0124157 0.987613 1000 1.00231 987.628 0.000440638 -0.0350081 10023.1 0 0 0 
0.00195312 0.208984 983.375 0.0166464 0.983374 1000 1.0012 983.391 0.000417495 -0.0363612 10012 0 0 0 
0.00195312 0.212891 974.243 0.0257627 0.974243 1000 1.00021 974.269 0.000393142 -0.0377892 10002.1 0 0 0.349979 
0.00195312 0.216797 952.8 0.0471691 0.952801 999.999 0.999365 952.847 0.000370209 -0.0394456 9993.65 0 0 0.35 
0.00195312 0.220703 902.418 0.0974616 0.902419 999.999 0.998775 902.515 0.000349383 -0.041558 9987.75 0 0 0.35 
0.00195312 0.224609 761.079 0.238555 0.76108 999.998 0.998473 761.318 0.000330621 -0.0445748 9984.73 0 0 0.35 
0.00195312 0.228516 466.167 0.533063 0.466168 999.999 0.998558 466.7 0.000317234 -0.0485925 9985.58 0 0 0.35 
0.00195312 0.232422 196.519 0.802507 0.19652 999.999 0.998789 197.322 0.000325514 -0.0530041 9987.89 0 0 0.35 
0.00195312 0.236328 81.0473 0.917982 0.0810474 999.999 0.998944 81.9653 0.000349365 -0.0565108 9989.44 0 0 0.35 
0.00195312 0.240234 39.4286 0.959661 0.0394287 999.999 0.999053 40.3883 0.000369593 -0.0594213 9990.53 0 0 0.35 
0.00195312 0.244141 21.8497 0.977294 0.0218497 999.999 0.999124 22.827 0.00037325 -0.0618849 9991.24 0 0 0.346265 
0.00195312 0.248047 14.3819 0.984807 0.0143819 999.999 0.999177 15.3667 0.000347991 -0.0640474 9991.77 0 0 0 
0.00195312 0.251953 10.9008 0.988328 0.0109008 999.999 0.99922 11.8891 0.000291707 -0.0658974 9992.2 0 0 0 
0.00195312 0.255859 8.40844 0.990856 0.00840844 999.999 0.999259 9.39929 0.000218967 -0.0674419 9992.59 0 0 0 
0.00195312 0.259766 6.18877 0.993107 0.00618877 999.999 0.999291 7.18187 0.000150179 -0.0686925 9992.91 0 0 0 
0.00195312 0.263672 4.1566 0.995164 0.0041566 999.999 0.999317 5.15176 9.58938e-05 -0.0697072 9993.17 0 0 0 
0.00195312 0.267578 2.43047 0.996908 0.00243047 999.999 0.999337 3.42738 4.61614e-05 -0.070537 9993.37 0 0 0 
0.00195312 0.271484 1.1506 0.9982 0.0011506 999.999 0.99935 2.1488 -1.82696e-05 -0.0712005 9993.5 0 0 -0.0019872 
0.00195312 0.275391 0.378926 0.99898 0.000378926 999.999 0.999359 1.37791 -9.55376e-05 -0.0716798 9993.59 0 -0.000500806 -0.0019872 
0.00195312 0.279297 0.0591025 0.999305 5.91026e-05 999.999 0.999364 1.05841 -0.000153983 -0.0719913 9993.64 0 0 0 
0.00195312 0.283203 0.0147032 0.999355 1.47032e-05 999.999 0.999369 1.01406 -0.000176924 -0.0721966 9993.69 0 0 0 
0.00195312 0.287109 0.0240479 0.99935 2.40479e-05 999.999 0.999374 1.0234 -0.000192497 -0.0723546 9993.74 0 0.0013599 0 
0.00195312 0.291016 0.0299398 0.999349 2.99398e-05 999.999 0.999379 1.02929 -0.000239158 -0.0724318 9993.79 0 0 0 
0.00195312 0.294922 0.0314161 0.999352 3.14161e-05 999.999 0.999384 1.03077 -0.000330371 -0.0723507 9993.84 0 0 0 
0.00195312 0.298828 0.0285253 0.99936 2.85253e-05 999.999 0.999388 1.02789 -0.000453544 -0.0720301 9993.88 0 0 0 
0.00195312 0.302734 0.0224546 0.99937 2.24546e-05 999.999 0.999393 1.02183 -0.000586503 -0.0714293 9993.93 0 0 0 
0.00195312 0.306641 0.0151106 0.999382 1.51106e-05 999.999 0.999397 1.01449 -0.000708725 -0.0705487 9993.97 0 0 0 
0.00195312 0.310547 0.00845617 0.999393 8.45618e-06 999.999 0.999401 1.00785 -0.000805134 -0.0694262 9994.01 0 0 0 
0.00195312 0.314453 0.00393981 0.999401 3.93981e-06 999.999 0.999405 1.00334 -0.000867022 -0.0681227 9994.05 0 0 0 
0.00195312 0.318359 0.00195188 0.999407 1.95188e-06 999.999 0.999409 1.00136 -0.000892346 -0.0667101 9994.09 0 0 0 
0.00195312 0.322266 0.00158235 0.999411 1.58235e-06 999.999 0.999412 1.00099 -0.00088534 -0.0652576 9994.12 0 0 0 
0.00195312 0.326172 0.00151109 0.999414 1.51109e-06 999.999 0.999416 1.00093 -0.000854923 -0.063821 9994.16 0 0 0 
0.00195312 0.330078 0.00143132 0.999417 1.43132e-06 999.999 0.999419 1.00085 -0.000812273 -0.0624356 9994.19 0 0 0 
0.00195312 0.333984 0.00134384 0.999421 1.34384e-06 999.999 0.999422 1.00076 -0.000768335 -0.0611145 9994.22 0 0 0 
0.00195312 0.337891 0.00125564 0.999424 1.25564e-06 999.999 0.999425 1.00068 -0.000731632 -0.0598512 9994.25 0 0 0 
0.00195312 0.341797 0.00117594 0.999426 1.17594e-06 999.999 0.999427 1.0006 -0.000706782 -0.058626 9994.27 0 0.00126659 0 
0.00195312 0.345703 0.00111158 0.999429 1.11158e-06 999.999 0.99943 1.00054 -0.000694199 -0.0574143 9994.3 0 0 0 
0.00195312 0.349609 0.00106489 0.999431 1.06489e-06 999.999 0.999432 1.0005 -0.000691118 -0.056194 9994.32 0 0 0 
0.00195312 0.353516 0.0010344 0.999433 1.0344e-06 999.999 0.999434 1.00047 -0.000693364 -0.0549502 9994.34 0 0 0 
0.00195312 0.357422 0.00101674 0.999435 1.01674e-06 999.999 0.999436 1.00045 -0.000697013 -0.0536763 9994.36 0 0 -0.00376493 
0.00195312 0.361328 0.00100817 0.999437 1.00817e-06 999.999 0.999438 1.00045 -0.00069933 -0.0523726 9994.38 0 0 -0.00376493 
0.00195312 0.365234 0.00100511 0.999439 1.00511e-06 999.999 0.99944 1.00044 -0.000698957 -0.0510433 9994.4 0 0 0 
0.00195312 0.369141 0.00100385 0.99944 1.00385e-06 999.999 0.999441 1.00044 -0.000695631 -0.0496943 9994.41 0 0 0 
0.00195312 0.373047 0.00100288 0.999441 1.00288e-06 999.999 0.999442 1.00044 -0.000689787 -0.0483313 9994.42 0 0 0 
0.00195312 0.376953 0.00100198 0.999442 1.00198e-06 999.999 0.999443 1.00044 -0.000682213 -0.0469585 9994.43 0 0 0 
0.00195312 0.380859 0.00100112 0.999443 1.00112e-06 999.999 0.999444 1.00044 -0.000673781 -0.0455788 9994.44 0 0 0 
0.00195312 0.384766 0.00100034 0.999444 1.00035e-06 999.999 0.999445 1.00044 -0.000665238 -0.0441936 9994.45 0 0 0 
0.00195312 0.388672 0.000999726 0.999444 9.99726e-07 1000 0.999445 1.00044 -0.000657089 -0.042803 9994.45 0 0 0.00111003 
0.00195312 0.392578 0.000999304 0.999445 9.99305e-07 999.999 0.999446 1.00044 -0.00064957 -0.0414066 9994.46 0 0 0.00111003 
0.00195312 0.396484 0.000999088 0.999445 9.99089e-07 999.999 0.999446 1.00044 -0.000642717 -0.0400036 9994.46 0 0 0 
0.00195312 0.400391 0.000999049 0.999445 9.99049e-07 999.999 0.999446 1.00044 -0.00063648 -0.038593 9994.46 0 0 0 
0.00195312 0.404297 0.000999129 0.999445 9.9913e-07 999.999 0.999446 1.00044 -0.000630801 -0.0371739 9994.46 0 0 0 
0.00195312 0.408203 0.000999265 0.999445 9.99266e-07 999.999 0.999446 1.00044 -0.000625651 -0.0357456 9994.46 0 0 0 
0.00195312 0.412109 0.000999401 0.999445 9.99402e-07 999.999 0.999446 1.00044 -0.00062101 -0.0343078 9994.46 0 0 0 
0.00195312 0.416016 0.000999499 0.999444 9.99499e-07 999.999 0.999445 1.00044 -0.000616832 -0.0328603 9994.45 0 0 0 
0.00195312 0.419922 0.000999544 0.999444 9.99544e-07 999.999 0.999445 1.00044 -0.000613025 -0.0314031 9994.45 0 0 0 
0.00195312 0.423828 0.000999541 0.999443 9.99542e-07 999.999 0.999444 1.00044 -0.000609463 -0.0299362 9994.44 0 0 0 
0.00195312 0.427734 0.000999509 0.999442 9.99509e-07 999.999 0.999443 1.00044 -0.00060601 -0.0284595 9994.43 0 0 0 
0.00195312 0.431641 0.000999467 0.999441 9.99468e-07 999.999 0.999442 1.00044 -0.000602563 -0.0269734 9994.42 0 0 0.000270373 
0.00195312 0.435547 0.000999433 0.99944 9.99433e-07 999.999 0.999441 1.00044 -0.00059906 -0.0254786 9994.41 0 0 0.000270373 
0.00195312 0.439453 0.000999417 0.999439 9.99417e-07 999.999 0.99944 1.00044 -0.000595482 -0.0239758 9994.4 0 0 0 
0.00195312 0.443359 0.000999421 0.999438 9.99422e-07 999.999 0.999439 1.00044 -0.000591846 -0.0224661 9994.39 0 0 0 
0.00195312 0.447266 0.000999443 0.999437 9.99444e-07 999.999 0.999438 1.00044 -0.000588207 -0.0209501 9994.38 0 0 0 
0.00195312 0.451172 0.000999477 0.999436 9.99477e-07 999.999 0.999437 1.00043 -0.000584661 -0.0194285 9994.37 0 0 -0.00119405 
0.00195312 0.455078 0.000999515 0.999434 9.99516e-07 999.999 0.999435 1.00043 -0.000581336 -0.017901 9994.35 0 0 0.000308212 
0.00195312 0.458984 0.000999553 0.999433 9.99553e-07 999.999 0.999434 1.00043 -0.000578376 -0.0163687 9994.34 0 0 0.00162744 
0.00195312 0.462891 0.000999583 0.999431 9.99584e-07 999.999 0.999432 1.00043 -0.000575894 -0.0148302 9994.32 0 0 0.000649192 
0.00195312 0.466797 0.0009996 0.999429 9.996e-07 999.999 0.99943 1.00043 -0.000573948 -0.013288 9994.3 0 0 0.000524006 
0.00195312 0.470703 0.000999597 0.999428 9.99598e-07 999.999 0.999429 1.00043 -0.000572528 -0.0117385 9994.29 0 0 0 
0.00195312 0.474609 0.00099957 0.999426 9.99571e-07 999.999 0.999427 1.00043 -0.00057159 -0.0101884 9994.27 0 0 0 
0.00195312 0.478516 0.000999516 0.999424 9.99516e-07 999.999 0.999425 1.00042 -0.000571061 -0.00862695 9994.25 0 0 0 
0.00195312 0.482422 0.000999436 0.999422 9.99436e-07 999.999 0.999423 1.00042 -0.000570879 -0.00707462 9994.23 0 0 0 
0.00195312 0.486328 0.000999338 0.99942 9.99339e-07 999.999 0.999421 1.00042 -0.000570978 -0.00549892 9994.21 0 0 0 
0.00195312 0.490234 0.000999236 0.999418 9.99236e-07 999.999 0.999419 1.00042 -0.000571261 -0.00396708 9994.19 0 0 0 
0.00195312 0.494141 0.000999149 0.999416 9.9915e-07 999.999 0.999417 1.00042 -0.00057155 -0.00238361 9994.17 0 0 0 
0.00195312 0.498047 0.000999097 0.999413 9.99098e-07 999.999 0.999414 1.00041 -0.000571679 -0.000950692 9994.14 0 0 0 
0.00585938 0.00195312 1000.1 9.41535e-07 0.999999 1000.1 1.09723 1000.1 0.000503977 -0.000391982 10972.3 0 0 0 
0.00585938 0.00585938 1000.09 9.52069e-07 0.999999 1000.09 1.09423 1000.09 0.000506232 -0.000674212 10942.3 0 0 0 
0.00585938 0.00976562 1000.09 9.86279e-07 0.999999 1000.09 1.09244 1000.09 0.000510882 -0.00114818 10924.4 0 0 0 
0.00585938 0.0136719 1000.09 1.02278e-06 0.999999 1000.09 1.08986 1000.09 0.000516889 -0.00155657 10898.6 0 0 0 
0.00585938 0.0175781 1000.09 1.03624e-06 0.999999 1000.09 1.0877 1000.09 0.000523041 -0.0020224 10877 0 0 0 
0.00585938 0.0214844 1000.08 1.03124e-06 0.999999 1000.09 1.0853 1000.08 0.000528591 -0.00246861 10853 0 0 0 
0.00585938 0.0253906 1000.08 1.02353e-06 0.999999 1000.08 1.08307 1000.08 0.000533427 -0.00293433 10830.7 0 0 0 
0.00585938 0.0292969 1000.08 1.01605e-06 0.999999 1000.08 1.08077 1000.08 0.000537864 -0.00339458 10807.7 0 0 0 
0.00585938 0.0332031 1000.08 1.00944e-06 0.999999 1000.08 1.07855 1000.08 0.00054235 -0.00386279 10785.5 0 0 0 
0.00585938 0.0371094 1000.08 1.00409e-06 0.999999 1000.08 1.07634 1000.08 0.000547247 -0.00433091 10763.4 0 0 0 
0.00585938 0.0410156 1000.07 1.00016e-06 0.999999 1000.07 1.07416 1000.07 0.000552746 -0.00480383 10741.6 0 0 0 
0.00585938 0.0449219 1000.07 9.97678e-07 0.999999 1000.07 1.072 1000.07 0.000558881 -0.00527917 10720 0 0 -0.000458698 
0.00585938 0.0488281 1000.07 9.96519e-07 0.999999 1000.07 1.06988 1000.07 0.000565583 -0.0057588 10698.8 0 0 -0.000458698 
0.00585938 0.0527344 1000.07 9.96445e-07 0.999999 1000.07 1.06778 1000.07 0.000572746 -0.00624206 10677.8 0 0 0 
0.00585938 0.0566406 1000.06 9.97125e-07 0.999999 1000.07 1.06571 1000.06 0.000580281 -0.00672966 10657.1 0 0 0 
0.00585938 0.0605469 1000.06 9.982e-07 0.999999 1000.06 1.06366 1000.06 0.000588147 -0.00722144 10636.6 0 0 0 
0.00585938 0.0644531 1000.06 9.99356e-07 0.999999 1000.06 1.06164 1000.06 0.000596356 -0.00771772 10616.4 0 0 0 
0.00585938 0.0683594 1000.06 1.00037e-06 0.999999 1000.06 1.05964 1000.06 0.000604958 -0.00821854 10596.4 0 0 0 
0.00585938 0.0722656 1000.06 1.00114e-06 0.999999 1000.06 1.05767 1000.06 0.000614021 -0.00872417 10576.7 0 0 0 
0.00585938 0.0761719 1000.05 1.00167e-06 0.999999 1000.06 1.05572 1000.05 0.000623611 -0.00923483 10557.2 0 0 0 
0.00585938 0.0800781 1000.05 1.00201e-06 0.999999 1000.05 1.0538 1000.05 0.000633788 -0.00975083 10538 0 0 0 
0.00585938 0.0839844 1000.05 1.00224e-06 0.999999 1000.05 1.0519 1000.05 0.00064461 -0.0102725 10519 0 0 0 
0.00585938 0.0878906 1000.05 1.0024e-06 0.999999 1000.05 1.05002 1000.05 0.000656145 -0.0108002 10500.2 0 0 0 
0.00585938 0.0917969 1000.05 1.00245e-06 0.999999 1000.05 1.04816 1000.05 0.000668476 -0.0113344 10481.6 0 0 0 
0.00585938 0.0957031 1000.05 1.00238e-06 0.999999 1000.05 1.04632 1000.05 0.000681706 -0.0118757 10463.2 0 0 0 
0.00585938 0.0996094 1000.04 1.00214e-06 0.999999 1000.04 1.04451 1000.04 0.000695934 -0.0124244 10445.1 0 0 0 
0.00585938 0.103516 1000.04 1.00178e-06 0.999999 1000.04 1.04272 1000.04 0.000711239 -0.0129814 10427.2 0 0 0 
0.00585938 0.107422 1000.04 1.00139e-06 0.999999 1000.04 1.04094 1000.04 0.000727639 -0.0135472 10409.4 0 0 0 
0.00585938 0.111328 1000.04 1.00267e-06 0.999999 1000.04 1.03919 1000.04 0.000745067 -0.0141225 10391.9 0 0 0.00212394 
0.00585938 0.115234 1000.04 1.01101e-06 0.999999 1000.04 1.03745 1000.04 0.000763366 -0.014708 10374.5 0 0 0.00212394 
0.00585938 0.119141 1000.03 1.03066e-06 0.999999 1000.04 1.03573 1000.03 0.000782311 -0.0153039 10357.3 0 0 0 
0.00585938 0.123047 1000.03 1.06444e-06 0.999999 1000.03 1.03404 1000.03 0.000801683 -0.0159108 10340.4 0 0 0 
0.00585938 0.126953 1000.03 1.11455e-06 0.999999 1000.03 1.03235 1000.03 0.000821391 -0.0165289 10323.5 0 0.000902124 0 
0.00585938 0.130859 1000.03 1.1847e-06 0.999999 1000.03 1.03069 1000.03 0.000841623 -0.0171583 10306.9 0 0.000461442 0 
0.00585938 0.134766 1000.03 1.28439e-06 0.999999 1000.03 1.02904 1000.03 0.000862998 -0.0177995 10290.4 0 0 0 
0.00585938 0.138672 1000.03 1.43857e-06 0.999999 1000.03 1.02741 1000.03 0.000886677 -0.0184538 10274.1 0 0 0 
0.00585938 0.142578 1000.02 1.70899e-06 0.999998 1000.03 1.0258 1000.02 0.000914359 -0.0191229 10258 0 0 0 
0.00585938 0.146484 1000.02 2.81944e-06 0.999997 1000.02 1.0242 1000.02 0.000948145 -0.0198103 10242 0 0 0 
0.00585938 0.150391 1000.02 6.88064e-06 0.999993 1000.02 1.02262 1000.02 0.000990246 -0.0205205 10226.2 0 0 0 
0.00585938 0.154297 1000.01 1.52526e-05 0.999985 1000.02 1.02105 1000.01 0.00104253 -0.0212597 10210.5 0 0 0 
0.00585938 0.158203 999.992 2.82285e-05 0.999972 1000.02 1.01949 999.992 0.00110593 -0.0220349 10194.9 0 0.000646512 0 
0.00585938 0.162109 999.973 4.54022e-05 0.999955 1000.02 1.01795 999.973 0.00117977 -0.0228532 10179.5 0 0 0 
0.00585938 0.166016 999.951 6.63349e-05 0.999935 1000.02 1.01643 999.951 0.00126114 -0.02372 10164.3 0 0 0 
0.00585938 0.169922 999.925 9.1602e-05 0.99991 1000.01 1.01491 999.925 0.0013446 -0.0246382 10149.1 0 0 0 
0.00585938 0.173828 999.891 0.000124546 0.999877 1000.01 1.01342 999.891 0.00142219 -0.0256058 10134.2 0 0 0 
0.00585938 0.177734 999.839 0.00017465 0.999827 1000.01 1.01193 999.84 0.00148429 -0.0266163 10119.3 0 0 0 
0.00585938 0.181641 999.657 0.000356686 0.999647 1000.01 1.01046 999.658 0.00152161 -0.0276596 10104.6 0 0 0 
0.00585938 0.185547 999.008 0.00100988 0.998999 1000.01 1.00901 999.009 0.00152926 -0.0287336 10090.1 0 0 0 
0.00585938 0.189453 997.693 0.0023322 0.997685 1000.01 1.00757 997.695 0.00151012 -0.0298481 10075.7 0 0 0 
0.00585938 0.193359 995.739 0.00429312 0.995733 1000.01 1.00617 995.744 0.00147277 -0.0310134 10061.7 0 0 0 
0.00585938 0.197266 993.331 0.00670632 0.993326 1000 1.00482 993.337 0.00142562 -0.032235 10048.2 0 0 0 
0.00585938 0.201172 990.648 0.00938853 0.990645 1000 1.00354 990.657 0.00137256 -0.0335086 10035.4 0 0 0 
0.00585938 0.205078 987.618 0.0124134 0.987615 1000 1.00233 987.63 0.0013119 -0.0348239 10023.3 0 0 0 
0.00585938 0.208984 983.378 0.0166432 0.983377 1000 1.00122 983.395 0.00124095 -0.0361781 10012.2 0 0 0 
0.00585938 0.212891 974.25 0.025756 0.97425 1000 1.00023 974.276 0.0011636 -0.03761 10002.3 0 0 0.349974 
0.00585938 0.216797 952.822 0.0471478 0.952822 999.999 0.999364 952.869 0.0010951 -0.0392691 9993.64 0 0 0.35 
0.00585938 0.220703 902.484 0.0973941 0.902486 999.999 0.998766 902.582 0.00104219 -0.0413734 9987.66 0 0 0.35 
0.00585938 0.224609 761.297 0.238333 0.761298 999.998 0.998456 761.535 0.00101329 -0.0443833 9984.56 0 0 0.35 
0.00585938 0.228516 466.524 0.532698 0.466525 999.999 0.998542 467.057 0.00101354 -0.0484206 9985.42 0 0 0.35 
0.00585938 0.232422 196.722 0.802297 0.196722 999.999 0.998779 197.524 0.00106375 -0.0528927 9987.79 0 0 0.35 
0.00585938 0.236328 81.1144 0.917911 0.0811145 999.999 0.998939 82.0323 0.00113112 -0.0564679 9989.39 0 0 0.35 
0.00585938 0.240234 39.4553 0.959632 0.0394553 999.999 0.99905 40.4149 0.0011718 -0.0594373 9990.5 0 0 0.35 
0.00585938 0.244141 21.8596 0.977282 0.0218597 999.999 0.999123 22.8369 0.00115821 -0.0619448 9991.23 0 0 0.346657 
0.00585938 0.248047 14.386 0.984802 0.0143861 999.999 0.999176 15.3708 0.00105951 -0.0641303 9991.76 0 0 0 
0.00585938 0.251953 10.9034 0.988325 0.0109034 999.999 0.99922 11.8918 0.000871677 -0.0659894 9992.2 0 0 0 
0.00585938 0.255859 8.41028 0.990855 0.00841029 999.999 0.999259 9.40113 0.000644108 -0.0675378 9992.59 0 0 0 
0.00585938 0.259766 6.18999 0.993106 0.00618999 999.999 0.999292 7.1831 0.000436155 -0.0687892 9992.92 0 0 0 
0.00585938 0.263672 4.15735 0.995163 0.00415735 999.999 0.999318 5.15251 0.00026704 -0.0698015 9993.18 0 0 0 
0.00585938 0.267578 2.43088 0.996908 0.00243088 999.999 0.999337 3.42779 0.000111121 -0.0706254 9993.37 0 0 0 
0.00585938 0.271484 1.15079 0.9982 0.00115079 999.999 0.99935 2.14899 -8.58743e-05 -0.0712775 9993.5 0 0 -0.00181023 
0.00585938 0.275391 0.378983 0.99898 0.000378983 999.999 0.999359 1.37796 -0.000318247 -0.0717442 9993.59 0 -0.000500806 -0.00181023 
0.00585938 0.279297 0.0591119 0.999306 5.9112e-05 999.999 0.999365 1.05842 -0.00049609 -0.0720419 9993.65 0 0 0 
0.00585938 0.283203 0.0147101 0.999355 1.47101e-05 999.999 0.99937 1.01407 -0.000569233 -0.0722272 9993.7 0 0 0 
0.00585938 0.287109 0.0240625 0.999351 2.40625e-05 999.999 0.999375 1.02341 -0.000618258 -0.0723584 9993.75 0 0.0013599 0 
0.00585938 0.291016 0.0299599 0.99935 2.996e-05 999.999 0.999379 1.02931 -0.000755198 -0.0724083 9993.79 0 0 0 
0.00585938 0.294922 0.0314359 0.999353 3.14359e-05 999.999 0.999384 1.03079 -0.00102324 -0.0723071 9993.84 0 -0.00040537 0 
0.00585938 0.298828 0.0285374 0.99936 2.85374e-05 999.999 0.999389 1.0279 -0.0013876 -0.0719764 9993.89 0 -0.00133531 0 
0.00585938 0.302734 0.0224588 0.999371 2.24588e-05 999.999 0.999393 1.02183 -0.00178205 -0.0713758 9993.93 0 0.000142394 0 
0.00585938 0.306641 0.0151102 0.999382 1.51102e-05 999.999 0.999397 1.01449 -0.00214505 -0.0705044 9993.97 0 0 0 
0.00585938 0.310547 0.00845442 0.999393 8.45443e-06 999.999 0.999402 1.00785 -0.00243171 -0.0693974 9994.02 0 -0.000823195 0 
0.00585938 0.314453 0.00393839 0.999401 3.93839e-06 999.999 0.999405 1.00334 -0.0026162 -0.0681127 9994.05 0 0 0 
0.00585938 0.318359 0.00195098 0.999407 1.95099e-06 999.999 0.999409 1.00136 -0.0026925 -0.0667194 9994.09 0 0 0 
0.00585938 0.322266 0.00158185 0.999411 1.58185e-06 999.999 0.999413 1.00099 -0.00267332 -0.0652836 9994.13 0 0 0 
0.00585938 0.326172 0.00151088 0.999415 1.51088e-06 999.999 0.999416 1.00093 -0.0025851 -0.0638589 9994.16 0 0 0 
0.00585938 0.330078 0.00143131 0.999418 1.43131e-06 999.999 0.999419 1.00085 -0.00246062 -0.0624787 9994.19 0 0 0 
0.00585938 0.333984 0.00134389 0.999421 1.34389e-06 999.999 0.999422 1.00076 -0.00233183 -0.0611564 9994.22 0 0 0 
0.00585938 0.337891 0.00125567 0.999424 1.25567e-06 999.999 0.999425 1.00068 -0.00222362 -0.0598869 9994.25 0 0 0 
0.00585938 0.341797 0.00117588 0.999427 1.17588e-06 999.999 0.999428 1.0006 -0.0021496 -0.058653 9994.28 0 0.00126659 0 
0.00585938 0.345703 0.00111144 0.999429 1.11144e-06 999.999 0.99943 1.00054 -0.0021112 -0.0574327 9994.3 0 0 0 
0.00585938 0.349609 0.00106468 0.999432 1.06469e-06 999.999 0.999433 1.0005 -0.00210056 -0.0562056 9994.33 0 0 0 
0.00585938 0.353516 0.00103418 0.999434 1.03418e-06 999.999 0.999435 1.00047 -0.00210571 -0.0549578 9994.35 0 0 0 
0.00585938 0.357422 0.00101656 0.999436 1.01656e-06 999.999 0.999437 1.00045 -0.00211531 -0.0536825 9994.37 0 0 -0.00251564 
0.00585938 0.361328 0.00100806 0.999437 1.00806e-06 999.999 0.999438 1.00045 -0.00212136 -0.0523792 9994.38 0 0 -0.00251564 
0.00585938 0.365234 0.00100505 0.999439 1.00505e-06 999.999 0.99944 1.00044 -0.00211977 -0.0510511 9994.4 0 0 0 
0.00585938 0.369141 0.00100382 0.99944 1.00382e-06 999.999 0.999441 1.00044 -0.00210966 -0.0497035 9994.41 0 0 0 
0.00585938 0.373047 0.00100285 0.999442 1.00286e-06 999.999 0.999443 1.00044 -0.00209219 -0.0483416 9994.43 0 0 0 
0.00585938 0.376953 0.00100196 0.999443 1.00196e-06 999.999 0.999444 1.00044 -0.00206965 -0.0469694 9994.44 0 0 0 
0.00585938 0.380859 0.00100111 0.999444 1.00111e-06 999.999 0.999445 1.00044 -0.00204458 -0.0455897 9994.45 0 0 0 
0.00585938 0.384766 0.00100034 0.999444 1.00034e-06 999.999 0.999445 1.00044 -0.00201917 -0.044204 9994.45 0 0 0 
0.00585938 0.388672 0.000999727 0.999445 9.99728e-07 999.999 0.999446 1.00044 -0.00199487 -0.0428127 9994.46 0 0.000342639 0.00111003 
0.00585938 0.392578 0.000999308 0.999445 9.99309e-07 999.999 0.999446 1.00044 -0.00197237 -0.0414155 9994.46 0 0 0.00111003 
0.00585938 0.396484 0.000999093 0.999445 9.99093e-07 999.999 0.999446 1.00044 -0.00195178 -0.0400116 9994.46 0 0 0 
0.00585938 0.400391 0.000999052 0.999445 9.99053e-07 999.999 0.999446 1.00044 -0.00193301 -0.0386003 9994.46 0 0 0 
0.00585938 0.404297 0.000999131 0.999445 9.99132e-07 999.999 0.999446 1.00044 -0.00191595 -0.0371805 9994.46 0 0.000196515 0 
0.00585938 0.408203 0.000999266 0.999445 9.99267e-07 1000 0.999446 1.00044 -0.00190055 -0.0357517 9994.46 0 0 0 
0.00585938 0.412109 0.000999401 0.999445 9.99402e-07 999.999 0.999446 1.00044 -0.00188671 -0.0343135 9994.46 0 0 0 
0.00585938 0.416016 0.000999499 0.999444 9.99499e-07 999.999 0.999445 1.00044 -0.00187423 -0.0328657 9994.45 0 0 0 
0.00585938 0.419922 0.000999544 0.999444 9.99544e-07 999.999 0.999445 1.00044 -0.00186277 -0.0314082 9994.45 0 0 0 
0.00585938 0.423828 0.000999541 0.999443 9.99542e-07 999.999 0.999444 1.00044 -0.00185194 -0.0299409 9994.44 0 0 0 
0.00585938 0.427734 0.000999509 0.999442 9.99509e-07 999.999 0.999443 1.00044 -0.00184141 -0.028464 9994.43 0 0.000320194 0 
0.00585938 0.431641 0.000999467 0.999442 9.99468e-07 999.999 0.999443 1.00044 -0.00183093 -0.0269778 9994.43 0 0 -0.000433505 
0.00585938 0.435547 0.000999433 0.999441 9.99434e-07 999.999 0.999442 1.00044 -0.00182036 -0.0254829 9994.42 0 0 -0.000433505 
0.00585938 0.439453 0.000999417 0.99944 9.99418e-07 999.999 0.999441 1.00044 -0.00180959 -0.02398 9994.41 0 0 0 
0.00585938 0.443359 0.000999422 0.999438 9.99422e-07 999.999 0.999439 1.00044 -0.00179863 -0.0224701 9994.39 0 0 0 
0.00585938 0.447266 0.000999444 0.999437 9.99444e-07 999.999 0.999438 1.00044 -0.0017876 -0.0209537 9994.38 0 0 0 
0.00585938 0.451172 0.000999477 0.999436 9.99478e-07 999.999 0.999437 1.00044 -0.00177682 -0.0194317 9994.37 0 0 -0.000885373 
0.00585938 0.455078 0.000999516 0.999434 9.99517e-07 999.999 0.999435 1.00043 -0.00176674 -0.0179038 9994.35 0 0 8.56501e-05 
0.00585938 0.458984 0.000999553 0.999433 9.99554e-07 999.999 0.999434 1.00043 -0.00175784 -0.016371 9994.34 0 0 0.00109621 
0.00585938 0.462891 0.000999584 0.999431 9.99584e-07 999.999 0.999432 1.00043 -0.00175043 -0.0148321 9994.32 0 0 0.000649192 
0.00585938 0.466797 0.0009996 0.99943 9.99601e-07 999.999 0.999431 1.00043 -0.00174464 -0.0132896 9994.31 0 0 0.000524006 
0.00585938 0.470703 0.000999598 0.999428 9.99598e-07 999.999 0.999429 1.00043 -0.00174033 -0.0117396 9994.29 0 0 0 
0.00585938 0.474609 0.000999571 0.999426 9.99571e-07 999.999 0.999427 1.00043 -0.00173731 -0.0101893 9994.27 0 0 0 
0.00585938 0.478516 0.000999516 0.999424 9.99517e-07 999.999 0.999425 1.00042 -0.00173533 -0.00862741 9994.25 0 0 0 
0.00585938 0.482422 0.000999436 0.999422 9.99437e-07 999.999 0.999423 1.00042 -0.00173424 -0.0070748 9994.23 0 0 0 
0.00585938 0.486328 0.000999338 0.99942 9.99339e-07 999.999 0.999421 1.00042 -0.00173394 -0.00549889 9994.21 0 0 0 
0.00585938 0.490234 0.000999236 0.999418 9.99237e-07 999.999 0.999419 1.00042 -0.00173417 -0.00396709 9994.19 0 0 0.000498949 
0.00585938 0.494141 0.000999149 0.999416 9.9915e-07 999.999 0.999417 1.00042 -0.0017346 -0.00238343 9994.17 0 0 0.000498949 
0.00585938 0.498047 0.000999098 0.999413 9.99098e-07 999.999 0.999414 1.00041 -0.00173476 -0.000950716 9994.14 0 0 0 
0.00976562 0.00195312 1000.1 9.41094e-07 0.999999 1000.1 1.09722 1000.1 0.000838978 -0.000391848 10972.2 0 0 0 
0.00976562 0.00585938 1000.09 9.51627e-07 0.999999 1000.09 1.09422 1000.09 0.000842799 -0.000673834 10942.2 0 0 0 
0.00976562 0.00976562 1000.09 9.85834e-07 0.999999 1000.09 1.09244 1000.09 0.000850635 -0.0011477 10924.4 0 0 0 
0.00976562 0.0136719 1000.09 1.02233e-06 0.999999 1000.09 1.08985 1000.09 0.000860699 -0.00155613 10898.5 0 0 0 