TITLE=FvSolution
VARIABLES=X Y RHO1Z1 RHO2Z2 Z1 RHO1 RHO2 RHO U V PRE theta lambdaX lambdaY 
ZONE T=TA, I=128, J=128, DATAPACKING = POINT
0.00195312 0.00195312 1000.18 8.03454e-07 0.999999 1000.18 1.18258 1000.18 0.000580119 -0.000758396 11825.8 0 0 0 
0.00195312 0.00585938 1000.18 8.39909e-07 0.999999 1000.18 1.17948 1000.18 0.000580122 -0.0017899 11794.8 0 0 0 
0.00195312 0.00976562 1000.18 9.04876e-07 0.999999 1000.18 1.1777 1000.18 0.000580251 -0.0029998 11777 0 0 0 
0.00195312 0.0136719 1000.17 9.81393e-07 0.999999 1000.17 1.17499 1000.17 0.000580665 -0.00413556 11749.9 0 0 0 
0.00195312 0.0175781 1000.17 1.05283e-06 0.999999 1000.17 1.17268 1000.17 0.000581501 -0.00533276 11726.8 0 0 0 
0.00195312 0.0214844 1000.17 1.1076e-06 0.999999 1000.17 1.17005 1000.17 0.000582841 -0.00650651 11700.5 0 0 0 
0.00195312 0.0253906 1000.17 1.13864e-06 0.999999 1000.17 1.16756 1000.17 0.000584699 -0.00770132 11675.6 0 0 0 
0.00195312 0.0292969 1000.16 1.14276e-06 0.999999 1000.16 1.16496 1000.16 0.000587032 -0.008891 11649.6 0 0 0 
0.00195312 0.0332031 1000.16 1.12022e-06 0.999999 1000.16 1.1624 1000.16 0.000589773 -0.0100914 11624 0 0 0 
0.00195312 0.0371094 1000.16 1.07545e-06 0.999999 1000.16 1.15978 1000.16 0.000592885 -0.0112943 11597.8 0 0 0 
0.00195312 0.0410156 1000.16 1.01783e-06 0.999999 1000.16 1.15717 1000.16 0.000596393 -0.0125055 11571.7 0 0 0 
0.00195312 0.0449219 1000.15 9.6173e-07 0.999999 1000.15 1.15454 1000.15 0.000600393 -0.013723 11545.4 0 0 0 
0.00195312 0.0488281 1000.15 9.24512e-07 0.999999 1000.15 1.15189 1000.15 0.00060502 -0.0149495 11518.9 0 0 0 
0.00195312 0.0527344 1000.15 9.22148e-07 0.999999 1000.15 1.14922 1000.15 0.000610367 -0.0161853 11492.2 0 0 0 
0.00195312 0.0566406 1000.15 9.63015e-07 0.999999 1000.15 1.14654 1000.15 0.000616405 -0.0174326 11465.4 0 0 0 
0.00195312 0.0605469 1000.14 1.04184e-06 0.999999 1000.14 1.14384 1000.14 0.00062294 -0.018692 11438.4 0 0 0 
0.00195312 0.0644531 1000.14 1.13663e-06 0.999999 1000.14 1.14113 1000.14 0.000629627 -0.0199645 11411.3 0 0 0 
0.00195312 0.0683594 1000.14 1.2115e-06 0.999999 1000.14 1.13839 1000.14 0.000636018 -0.0212497 11383.9 0 0 0 
0.00195312 0.0722656 1000.13 1.22624e-06 0.999999 1000.14 1.13565 1000.13 0.000641602 -0.0225465 11356.5 0 0 0 
0.00195312 0.0761719 1000.13 1.15068e-06 0.999999 1000.13 1.13289 1000.13 0.000645953 -0.0238531 11328.9 0 0 0 
0.00195312 0.0800781 1000.13 9.78804e-07 0.999999 1000.13 1.13011 1000.13 0.000649149 -0.0251666 11301.1 0 0 0 
0.00195312 0.0839844 1000.13 7.38154e-07 0.999999 1000.13 1.12732 1000.13 0.000652418 -0.0264859 11273.2 0 0 0 
0.00195312 0.0878906 1000.12 4.93114e-07 1 1000.12 1.12451 1000.12 0.000658358 -0.0278134 11245.1 0 0 0 
0.00195312 0.0917969 1000.12 3.42209e-07 1 1000.12 1.12169 1000.12 0.000669871 -0.0291576 11216.9 0 0 0 
0.00195312 0.0957031 1000.12 4.04374e-07 1 1000.12 1.11885 1000.12 0.000687813 -0.0305305 11188.5 0 0 0 
0.00195312 0.0996094 1000.12 7.81811e-07 0.999999 1000.12 1.116 1000.12 0.000709175 -0.0319436 11160 0 0 0 
0.00195312 0.103516 1000.11 1.49292e-06 0.999999 1000.11 1.11314 1000.11 0.00072818 -0.0333961 11131.4 0 0 0 
0.00195312 0.107422 1000.11 2.39878e-06 0.999998 1000.11 1.11025 1000.11 0.000740429 -0.0348818 11102.5 0 0 0 
0.00195312 0.111328 1000.1 3.18448e-06 0.999997 1000.11 1.10738 1000.1 0.000746378 -0.036381 11073.8 0 0 0 
0.00195312 0.115234 1000.1 3.45749e-06 0.999997 1000.1 1.10443 1000.1 0.000749945 -0.037895 11044.3 0 0 0 
0.00195312 0.119141 1000.1 2.96055e-06 0.999997 1000.1 1.10158 1000.1 0.000753051 -0.0394043 11015.8 0 0 0 
0.00195312 0.123047 1000.1 1.79724e-06 0.999998 1000.1 1.09854 1000.1 0.000752665 -0.0409388 10985.4 0 0 0 
0.00195312 0.126953 1000.1 5.20919e-07 1 1000.1 1.09612 1000.1 0.000745188 -0.0424578 10961.2 0 0 0 
0.00195312 0.130859 1000.09 1.17618e-08 1 1000.09 1.08828 1000.09 0.000736029 -0.0441144 10882.8 1 0 0 
0.00195312 0.134766 1000.09 1.19179e-06 0.999999 1000.09 1.08939 1000.09 0.000736267 -0.0454651 10893.9 0 0 0 
0.00195312 0.138672 1000.08 6.37636e-06 0.999994 1000.09 1.0867 1000.08 0.000724612 -0.0468955 10867 0 0 0 
0.00195312 0.142578 1000.07 1.61137e-05 0.999985 1000.08 1.08375 1000.07 0.000708125 -0.0483329 10837.5 0 0 0 
0.00195312 0.146484 1000.05 2.89533e-05 0.999973 1000.08 1.0807 1000.05 0.000704917 -0.0497514 10807 0 0 0 
0.00195312 0.150391 1000.04 4.15927e-05 0.999961 1000.08 1.07766 1000.04 0.000724272 -0.0511871 10776.6 0 0 0 
0.00195312 0.154297 1000.03 4.97629e-05 0.999954 1000.07 1.07459 1000.03 0.00076095 -0.0526791 10745.9 0 0 0 
0.00195312 0.158203 1000.02 4.99834e-05 0.999953 1000.07 1.07152 1000.02 0.000802993 -0.0542512 10715.2 0 0 0 
0.00195312 0.162109 1000.03 4.19572e-05 0.999961 1000.07 1.06844 1000.03 0.000842555 -0.0559041 10684.4 0 0 0 
0.00195312 0.166016 1000.04 3.1111e-05 0.999971 1000.07 1.06534 1000.04 0.000879553 -0.057632 10653.4 0 0 0 
0.00195312 0.169922 1000.03 3.07565e-05 0.999971 1000.06 1.06223 1000.03 0.000917489 -0.059433 10622.3 0 0 0 
0.00195312 0.173828 999.999 6.35693e-05 0.99994 1000.06 1.05911 999.999 0.000957728 -0.0613112 10591.1 0 0 0 
0.00195312 0.177734 999.902 0.000162535 0.999846 1000.06 1.05598 999.902 0.000997674 -0.0632699 10559.8 0 0 0 
0.00195312 0.181641 999.699 0.000372081 0.999647 1000.05 1.05284 999.7 0.00103293 -0.065305 10528.4 0 0 0 
0.00195312 0.185547 999.334 0.000750759 0.999285 1000.05 1.04969 999.335 0.00106033 -0.0674053 10496.9 0 0 0 
0.00195312 0.189453 998.73 0.00137777 0.998683 1000.05 1.04653 998.731 0.0010794 -0.0695561 10465.3 0 0 0 
0.00195312 0.193359 997.774 0.00236715 0.997731 1000.04 1.04335 997.777 0.00109167 -0.0717448 10433.5 0 0 0 
0.00195312 0.197266 996.294 0.00389641 0.996254 1000.04 1.04015 996.298 0.0010993 -0.0739633 10401.5 0 0 0 
0.00195312 0.201172 993.998 0.00626132 0.993962 1000.04 1.03692 994.005 0.00110401 -0.0762092 10369.2 0 0 0 
0.00195312 0.205078 990.378 0.00998007 0.990345 1000.03 1.03367 990.388 0.00110683 -0.0784852 10336.7 0 0 0 
0.00195312 0.208984 984.505 0.0159961 0.984475 1000.03 1.03037 984.521 0.00110857 -0.0808003 10303.7 0 0 0 
0.00195312 0.212891 974.621 0.0260924 0.974594 1000.03 1.02702 974.647 0.00111087 -0.0831747 10270.2 0 0 0 
0.00195312 0.216797 957.243 0.0437904 0.95722 1000.02 1.02362 957.286 0.0011175 -0.08565 10236.2 0 0 0 
0.00195312 0.220703 925.05 0.076478 0.925031 1000.02 1.02013 925.126 0.00113506 -0.0883235 10201.3 0 0 0 
0.00195312 0.224609 862.694 0.139601 0.86268 1000.02 1.01661 862.834 0.00117167 -0.0913575 10166.1 0 0 0 
0.00195312 0.228516 754.586 0.248644 0.754576 1000.01 1.01312 754.834 0.00123319 -0.0950651 10131.2 0 0 0 
0.00195312 0.232422 605.917 0.397934 0.605911 1000.01 1.00976 606.315 0.00131789 -0.0999157 10097.6 0 0 0 
0.00195312 0.236328 439.28 0.564519 0.439277 1000.01 1.00677 439.845 0.00141193 -0.106049 10067.7 0 0 0 
0.00195312 0.240234 282.649 0.72054 0.282647 1000 1.00444 283.369 0.00149093 -0.112966 10044.4 0 0 0 
0.00195312 0.244141 161.507 0.840899 0.161506 1000 1.00287 162.347 0.00152829 -0.119804 10028.7 0 0 0 
0.00195312 0.248047 87.661 0.914083 0.0876608 1000 1.00191 88.5751 0.00150595 -0.125893 10019.1 0 0 0 
0.00195312 0.251953 49.3036 0.951971 0.0493035 1000 1.00134 50.2556 0.00142015 -0.131051 10013.4 0 0 0 
0.00195312 0.255859 29.0198 0.971942 0.0290198 1000 1.00099 29.9917 0.00127789 -0.135307 10009.9 0 0 0 
0.00195312 0.259766 17.6794 0.983075 0.0176794 1000 1.00077 18.6625 0.00109218 -0.138769 10007.7 0 0 0 
0.00195312 0.263672 11.0438 0.989572 0.0110437 1000 1.00062 12.0333 0.000876622 -0.14151 10006.2 0 0 0 
0.00195312 0.267578 7.00103 0.99352 0.00700102 1000 1.00053 7.99455 0.00064082 -0.143582 10005.3 0 0 0 
0.00195312 0.271484 4.45032 0.996006 0.00445032 1000 1.00046 5.44633 0.000390209 -0.145016 10004.6 0 0 0 
0.00195312 0.275391 2.79763 0.997613 0.00279763 1000 1.00041 3.79524 0.00012813 -0.145838 10004.1 0 0 0 
0.00195312 0.279297 1.71234 0.998665 0.00171234 1000 1.00038 2.71101 -0.000128575 -0.146076 10003.8 0 0 0 
0.00195312 0.283203 1.00307 0.99935 0.00100307 1000 1.00035 2.00243 -0.000344793 -0.145794 10003.5 0 0 0 
0.00195312 0.287109 0.552155 0.999783 0.000552155 1000 1.00034 1.55194 -0.000519564 -0.14509 10003.4 0 0 0 
0.00195312 0.291016 0.28112 1.00004 0.00028112 1000 1.00032 1.28116 -0.000668407 -0.144035 10003.2 0 0 0 
0.00195312 0.294922 0.133348 1.00018 0.000133348 1000 1.00031 1.13352 -0.000804009 -0.142674 10003.1 0 0 0 
0.00195312 0.298828 0.0658857 1.00023 6.58856e-05 1000 1.0003 1.06612 -0.000933137 -0.141029 10003 0 0 0 
0.00195312 0.302734 0.0458768 1.00024 4.58768e-05 1000 1.00029 1.04612 -0.00105581 -0.139114 10002.9 0 0 0 
0.00195312 0.306641 0.0490502 1.00023 4.90501e-05 1000 1.00028 1.04928 -0.00116661 -0.136947 10002.8 0 0 0 
0.00195312 0.310547 0.0588645 1.00021 5.88645e-05 1000 1.00027 1.05907 -0.00125674 -0.134562 10002.7 0 0 0 
0.00195312 0.314453 0.0655974 1.00019 6.55974e-05 1000 1.00026 1.06579 -0.00131627 -0.132008 10002.6 0 0 0 
0.00195312 0.318359 0.0651038 1.00018 6.51037e-05 1000 1.00025 1.06529 -0.00133772 -0.129359 10002.5 0 0 0 
0.00195312 0.322266 0.0572812 1.00018 5.72811e-05 1000 1.00024 1.05746 -0.00132155 -0.126686 10002.4 0 0 0 
0.00195312 0.326172 0.0444515 1.00018 4.44515e-05 1000 1.00023 1.04463 -0.0012804 -0.124065 10002.3 0 0 0 
0.00195312 0.330078 0.0298957 1.00019 2.98957e-05 1000 1.00022 1.03008 -0.00123722 -0.121509 10002.2 0 0 0 
0.00195312 0.333984 0.0167104 1.00019 1.67104e-05 1000 1.00021 1.0169 -0.00121653 -0.119024 10002.1 0 0 0 
0.00195312 0.337891 0.00705373 1.00019 7.05373e-06 1000 1.0002 1.00725 -0.00122989 -0.116515 10002 0 0 0 
0.00195312 0.341797 0.00174566 1.00019 1.74566e-06 1000 1.00019 1.00194 -0.00126541 -0.114041 10001.9 0 0 0 
0.00195312 0.345703 0.00012856 1.00019 1.2856e-07 1000 1.00019 1.00032 -0.00129296 -0.111502 10001.9 1 0 0 
0.00195312 0.349609 6.23099e-05 1.00018 6.23099e-08 1000 1.00018 1.00024 -0.00131143 -0.1087 10001.8 1 0 0 
0.00195312 0.353516 0.000350184 1.00017 3.50183e-07 1000 1.00017 1.00052 -0.00131033 -0.105835 10001.7 0 0 0 
0.00195312 0.357422 0.000890305 1.00016 8.90305e-07 1000 1.00016 1.00105 -0.00129386 -0.1032 10001.6 0 0 0 
0.00195312 0.361328 0.00152306 1.00015 1.52306e-06 1000 1.00015 1.00167 -0.00128849 -0.10044 10001.5 0 0 0 
0.00195312 0.365234 0.00207399 1.00014 2.07399e-06 1000 1.00015 1.00222 -0.00131035 -0.0977447 10001.5 0 0 0 
0.00195312 0.369141 0.00240461 1.00014 2.40461e-06 1000 1.00014 1.00254 -0.00135542 -0.0949278 10001.4 0 0 0 
0.00195312 0.373047 0.00244983 1.00013 2.44983e-06 1000 1.00013 1.00258 -0.00140597 -0.0920335 10001.3 0 0 0 
0.00195312 0.376953 0.00222778 1.00012 2.22778e-06 1000 1.00012 1.00235 -0.00144243 -0.0890265 10001.2 0 0 0 
0.00195312 0.380859 0.00182211 1.00011 1.82211e-06 1000 1.00012 1.00194 -0.00145374 -0.0859735 10001.2 0 0 0 
0.00195312 0.384766 0.0013473 1.00011 1.3473e-06 1000 1.00011 1.00146 -0.00144084 -0.082911 10001.1 0 0 0 
0.00195312 0.388672 0.000912432 1.0001 9.12432e-07 1000 1.0001 1.00101 -0.0014132 -0.0798875 10001 0 0 0 
0.00195312 0.392578 0.000595103 1.0001 5.95103e-07 1000 1.0001 1.00069 -0.00138235 -0.0769163 10001 0 0 0 
0.00195312 0.396484 0.000430607 1.00009 4.30607e-07 1000 1.00009 1.00052 -0.00135693 -0.0739976 10000.9 0 0 0 
0.00195312 0.400391 0.000414774 1.00008 4.14774e-07 1000 1.00008 1.0005 -0.00134083 -0.0711144 10000.8 0 0 0 
0.00195312 0.404297 0.000515212 1.00008 5.15212e-07 1000 1.00008 1.00059 -0.00133368 -0.0682492 10000.8 0 0 0 
0.00195312 0.408203 0.000685246 1.00007 6.85246e-07 1000 1.00007 1.00076 -0.00133267 -0.0653865 10000.7 0 0 0 
0.00195312 0.412109 0.000876493 1.00007 8.76493e-07 1000 1.00007 1.00094 -0.0013342 -0.0625182 10000.7 0 0 0 
0.00195312 0.416016 0.00104809 1.00006 1.04809e-06 1000 1.00006 1.00111 -0.00133508 -0.0596427 10000.6 0 0 0 
0.00195312 0.419922 0.0011721 1.00005 1.1721e-06 1000 1.00006 1.00123 -0.0013332 -0.0567637 10000.6 0 0 0 
0.00195312 0.423828 0.00123557 1.00005 1.23557e-06 1000 1.00005 1.00128 -0.00132766 -0.0538877 10000.5 0 0 0 
0.00195312 0.427734 0.00123961 1.00004 1.23961e-06 1000 1.00004 1.00128 -0.00131874 -0.0510219 10000.4 0 0 0 
0.00195312 0.431641 0.0011964 1.00004 1.1964e-06 1000 1.00004 1.00123 -0.00130747 -0.0481722 10000.4 0 0 0 
0.00195312 0.435547 0.00112476 1.00003 1.12475e-06 1000 1.00003 1.00116 -0.0012953 -0.0453425 10000.3 0 0 0 
0.00195312 0.439453 0.00104524 1.00003 1.04524e-06 1000 1.00003 1.00107 -0.00128359 -0.0425337 10000.3 0 0 0 
0.00195312 0.443359 0.000975711 1.00002 9.7571e-07 1000 1.00003 1.001 -0.00127331 -0.0397441 10000.3 0 0 0 
0.00195312 0.447266 0.000928215 1.00002 9.28215e-07 1000 1.00002 1.00095 -0.00126496 -0.0369699 10000.2 0 0 0 
0.00195312 0.451172 0.000907566 1.00002 9.07566e-07 1000 1.00002 1.00092 -0.00125855 -0.0342074 10000.2 0 0 0 
0.00195312 0.455078 0.00091179 1.00001 9.1179e-07 1000 1.00001 1.00092 -0.00125373 -0.0314518 10000.1 0 0 0 
0.00195312 0.458984 0.000933956 1.00001 9.33956e-07 1000 1.00001 1.00094 -0.00124997 -0.0287015 10000.1 0 0 0 
0.00195312 0.462891 0.000964768 1 9.64768e-07 1000 1 1.00097 -0.00124673 -0.025953 10000 0 0 0 
0.00195312 0.466797 0.000995148 0.999999 9.95148e-07 1000 1 1.00099 -0.00124362 -0.0232093 10000 0 0 0 
0.00195312 0.470703 0.00101824 0.999996 1.01824e-06 1000 0.999997 1.00101 -0.00124045 -0.0204647 9999.97 0 0 0 
0.00195312 0.474609 0.00103046 0.999992 1.03046e-06 1000 0.999993 1.00102 -0.00123726 -0.0177306 9999.93 0 0 0 
0.00195312 0.478516 0.00103163 0.999989 1.03163e-06 1000 0.99999 1.00102 -0.00123423 -0.0149893 9999.9 0 0 0 
0.00195312 0.482422 0.00102425 0.999985 1.02425e-06 1000 0.999986 1.00101 -0.0012316 -0.0122739 9999.86 0 0 0 
0.00195312 0.486328 0.00101241 0.999982 1.01241e-06 1000 0.999983 1.00099 -0.00122955 -0.00953031 9999.83 0 0 0 
0.00195312 0.490234 0.00100043 0.999979 1.00043e-06 1000 0.99998 1.00098 -0.00122815 -0.00686188 9999.8 0 0 0 
0.00195312 0.494141 0.000991745 0.999977 9.91745e-07 1000 0.999978 1.00097 -0.00122737 -0.00409826 9999.78 0 0 0 
0.00195312 0.498047 0.000987884 0.999974 9.87884e-07 1000 0.999975 1.00096 -0.00122709 -0.00153749 9999.75 0 0 0 
0.00585938 0.00195312 1000.18 8.0195e-07 0.999999 1000.18 1.18271 1000.18 0.00172813 -0.000758352 11827.1 0 0 0 
0.00585938 0.00585938 1000.18 8.38336e-07 0.999999 1000.18 1.17961 1000.18 0.00172812 -0.00178975 11796.1 0 0 0 
0.00585938 0.00976562 1000.18 9.03186e-07 0.999999 1000.18 1.17783 1000.18 0.0017285 -0.00299953 11778.3 0 0 0 
0.00585938 0.0136719 1000.17 9.79566e-07 0.999999 1000.18 1.17512 1000.17 0.00172972 -0.00413513 11751.2 0 0 0 
0.00585938 0.0175781 1000.17 1.05087e-06 0.999999 1000.17 1.17281 1000.17 0.00173222 -0.00533214 11728.1 0 0 0 
0.00585938 0.0214844 1000.17 1.10554e-06 0.999999 1000.17 1.17018 1000.17 0.00173623 -0.00650568 11701.8 0 0 0 
0.00585938 0.0253906 1000.17 1.13652e-06 0.999999 1000.17 1.16769 1000.17 0.0017418 -0.00770028 11676.9 0 0 0 
0.00585938 0.0292969 1000.16 1.1406e-06 0.999999 1000.17 1.16509 1000.16 0.00174879 -0.00888975 11650.9 0 0 0 
0.00585938 0.0332031 1000.16 1.11808e-06 0.999999 1000.16 1.16253 1000.16 0.00175701 -0.01009 11625.3 0 0 0 
0.00585938 0.0371094 1000.16 1.07336e-06 0.999999 1000.16 1.15991 1000.16 0.00176635 -0.0112927 11599.1 0 0 0 
0.00585938 0.0410156 1000.16 1.01583e-06 0.999999 1000.16 1.1573 1000.16 0.00177689 -0.0125038 11573 0 0 0 
0.00585938 0.0449219 1000.15 9.5984e-07 0.999999 1000.15 1.15467 1000.15 0.0017889 -0.0137212 11546.7 0 0 0 
0.00585938 0.0488281 1000.15 9.22727e-07 0.999999 1000.15 1.15202 1000.15 0.00180277 -0.0149477 11520.2 0 0 0 
0.00585938 0.0527344 1000.15 9.20427e-07 0.999999 1000.15 1.14935 1000.15 0.00181877 -0.0161835 11493.5 0 0 0 
0.00585938 0.0566406 1000.15 9.61278e-07 0.999999 1000.15 1.14667 1000.15 0.00183682 -0.0174306 11466.7 0 0 0 
0.00585938 0.0605469 1000.14 1.03997e-06 0.999999 1000.14 1.14397 1000.14 0.00185635 -0.0186899 11439.7 0 0 0 
0.00585938 0.0644531 1000.14 1.13454e-06 0.999999 1000.14 1.14126 1000.14 0.00187636 -0.0199621 11412.6 0 0 0 
0.00585938 0.0683594 1000.14 1.20916e-06 0.999999 1000.14 1.13853 1000.14 0.0018955 -0.021247 11385.3 0 0 0 
0.00585938 0.0722656 1000.13 1.22376e-06 0.999999 1000.14 1.13578 1000.13 0.00191225 -0.0225436 11357.8 0 0 0 
0.00585938 0.0761719 1000.13 1.14829e-06 0.999999 1000.13 1.13302 1000.13 0.00192535 -0.0238499 11330.2 0 0 0 
0.00585938 0.0800781 1000.13 9.76702e-07 0.999999 1000.13 1.13024 1000.13 0.00193508 -0.0251634 11302.4 0 0 0 
0.00585938 0.0839844 1000.13 7.36347e-07 0.999999 1000.13 1.12745 1000.13 0.00194512 -0.0264833 11274.5 0 0 0 
0.00585938 0.0878906 1000.12 4.9149e-07 1 1000.12 1.12464 1000.12 0.00196314 -0.0278117 11246.4 0 0 0 
0.00585938 0.0917969 1000.12 3.40806e-07 1 1000.12 1.12182 1000.12 0.00199763 -0.0291573 11218.2 0 0 0 
0.00585938 0.0957031 1000.12 4.03517e-07 1 1000.12 1.11899 1000.12 0.00205097 -0.0305311 11189.9 0 0 0 
0.00585938 0.0996094 1000.12 7.8168e-07 0.999999 1000.12 1.11613 1000.12 0.00211425 -0.0319438 11161.3 0 0 0 
0.00585938 0.103516 1000.11 1.49272e-06 0.999999 1000.11 1.11327 1000.11 0.00217061 -0.0333946 11132.7 0 0 0 
0.00585938 0.107422 1000.11 2.39647e-06 0.999998 1000.11 1.11038 1000.11 0.00220723 -0.0348778 11103.8 0 0 0 
0.00585938 0.111328 1000.1 3.17801e-06 0.999997 1000.11 1.10751 1000.1 0.00222528 -0.0363748 11075.1 0 0 0 
0.00585938 0.115234 1000.1 3.44696e-06 0.999997 1000.1 1.10456 1000.1 0.00223581 -0.0378867 11045.6 0 0 0 
0.00585938 0.119141 1000.1 2.94919e-06 0.999997 1000.1 1.10171 1000.1 0.00224398 -0.0393927 11017.1 0 0 0 
0.00585938 0.123047 1000.1 1.78948e-06 0.999998 1000.1 1.09867 1000.1 0.00224143 -0.0409216 10986.7 0 0 0 
0.00585938 0.126953 1000.1 5.18507e-07 1 1000.1 1.09625 1000.1 0.00222128 -0.042434 10962.5 0 0 0 
0.00585938 0.130859 1000.09 1.19535e-08 1 1000.09 1.08839 1000.09 0.00220181 -0.0440882 10883.9 1 0 0 
0.00585938 0.134766 1000.09 1.19234e-06 0.999999 1000.09 1.08952 1000.09 0.00219656 -0.0454392 10895.2 0 0 0 
0.00585938 0.138672 1000.08 6.37294e-06 0.999994 1000.09 1.08683 1000.08 0.00216137 -0.0468698 10868.3 0 0 0 
0.00585938 0.142578 1000.07 1.6095e-05 0.999985 1000.08 1.08388 1000.07 0.00211449 -0.0483114 10838.8 0 0 0 
0.00585938 0.146484 1000.05 2.89051e-05 0.999973 1000.08 1.08084 1000.05 0.00210624 -0.0497381 10808.4 0 0 0 
0.00585938 0.150391 1000.04 4.15057e-05 0.999961 1000.08 1.07779 1000.04 0.00216349 -0.0511827 10777.9 0 0 0 
0.00585938 0.154297 1000.03 4.96404e-05 0.999954 1000.07 1.07473 1000.03 0.00227139 -0.0526805 10747.3 0 0 0 
0.00585938 0.158203 1000.03 4.98418e-05 0.999953 1000.07 1.07166 1000.03 0.00239522 -0.054254 10716.6 0 0 0 
0.00585938 0.162109 1000.03 4.18176e-05 0.999961 1000.07 1.06858 1000.03 0.00251191 -0.0559042 10685.8 0 0 0 
0.00585938 0.166016 1000.04 3.09834e-05 0.999971 1000.07 1.06548 1000.04 0.0026208 -0.0576258 10654.8 0 0 0 
0.00585938 0.169922 1000.03 3.06168e-05 0.999971 1000.06 1.06237 1000.03 0.00273198 -0.059416 10623.7 0 0 0 
0.00585938 0.173828 999.999 6.33341e-05 0.99994 1000.06 1.05925 1000 0.00284971 -0.0612781 10592.5 0 0 0 
0.00585938 0.177734 999.903 0.000162037 0.999847 1000.06 1.05612 999.903 0.00296691 -0.0632153 10561.2 0 0 0 
0.00585938 0.181641 999.701 0.000371044 0.999648 1000.05 1.05297 999.701 0.0030711 -0.0652251 10529.7 0 0 0 
0.00585938 0.185547 999.337 0.000748771 0.999287 1000.05 1.04981 999.337 0.00315307 -0.0672986 10498.1 0 0 0 
0.00585938 0.189453 998.734 0.00137423 0.998687 1000.05 1.04663 998.735 0.00321108 -0.0694237 10466.3 0 0 0 
0.00585938 0.193359 997.78 0.00236123 0.997737 1000.04 1.04344 997.783 0.00324934 -0.0715896 10434.4 0 0 0 
0.00585938 0.197266 996.304 0.00388687 0.996263 1000.04 1.04023 996.307 0.00327388 -0.0737891 10402.3 0 0 0 
0.00585938 0.201172 994.013 0.00624641 0.993976 1000.04 1.03699 994.019 0.00328969 -0.0760199 10369.9 0 0 0 
0.00585938 0.205078 990.401 0.00995725 0.990368 1000.03 1.03372 990.411 0.00329988 -0.078285 10337.2 0 0 0 
0.00585938 0.208984 984.539 0.0159616 0.98451 1000.03 1.03042 984.555 0.00330704 -0.0805937 10304.2 0 0 0 
0.00585938 0.212891 974.672 0.0260404 0.974646 1000.03 1.02706 974.698 0.00331619 -0.0829669 10270.6 0 0 0 
0.00585938 0.216797 957.321 0.0437109 0.957299 1000.02 1.02364 957.365 0.00333847 -0.0854469 10236.4 0 0 0 
0.00585938 0.220703 925.175 0.0763515 0.925157 1000.02 1.02015 925.252 0.0033931 -0.088131 10201.5 0 0 0 
0.00585938 0.224609 862.889 0.139405 0.862875 1000.02 1.01663 863.029 0.00350327 -0.0911805 10166.3 0 0 0 
0.00585938 0.228516 754.827 0.248403 0.754817 1000.01 1.01313 755.075 0.00368333 -0.0949046 10131.3 0 0 0 
0.00585938 0.232422 606.147 0.397706 0.606141 1000.01 1.00977 606.545 0.00392512 -0.0997648 10097.7 0 0 0 
0.00585938 0.236328 439.465 0.564338 0.439462 1000.01 1.00678 440.029 0.00419036 -0.105892 10067.8 0 0 0 
0.00585938 0.240234 282.783 0.72041 0.282781 1000 1.00445 283.503 0.00441246 -0.112781 10044.5 0 0 0 
0.00585938 0.244141 161.603 0.840807 0.161602 1000 1.00287 162.444 0.00451717 -0.119573 10028.7 0 0 0 
0.00585938 0.248047 87.7324 0.914014 0.0877322 1000 1.00191 88.6464 0.00445236 -0.125612 10019.1 0 0 0 
0.00585938 0.251953 49.3572 0.95192 0.0493572 1000 1.00134 50.3092 0.00420521 -0.130727 10013.4 0 0 0 
0.00585938 0.255859 29.06 0.971903 0.02906 1000 1.00099 30.0319 0.00379405 -0.134955 10009.9 0 0 0 
0.00585938 0.259766 17.7092 0.983046 0.0177092 1000 1.00077 18.6923 0.00325367 -0.138404 10007.7 0 0 0 
0.00585938 0.263672 11.0654 0.989551 0.0110654 1000 1.00062 12.055 0.00261706 -0.141142 10006.2 0 0 0 
0.00585938 0.267578 7.01635 0.993505 0.00701635 1000 1.00053 8.00986 0.00191005 -0.143217 10005.3 0 0 0 
0.00585938 0.271484 4.46085 0.995995 0.00446085 1000 1.00046 5.45685 0.00116067 -0.144659 10004.6 0 0 0 
0.00585938 0.275391 2.8046 0.997605 0.0028046 1000 1.00041 3.80221 0.000401228 -0.145498 10004.1 0 0 0 
0.00585938 0.279297 1.71675 0.99866 0.00171675 1000 1.00038 2.71541 -0.000326386 -0.145779 10003.8 0 0 0 
0.00585938 0.283203 1.00571 0.999347 0.00100571 1000 1.00035 2.00505 -0.000962476 -0.14556 10003.5 0 0 0 
0.00585938 0.287109 0.553602 0.999781 0.000553602 1000 1.00034 1.55338 -0.00149201 -0.144905 10003.4 0 0 0 
0.00585938 0.291016 0.281817 1.00004 0.000281817 1000 1.00032 1.28186 -0.00194328 -0.143882 10003.2 0 0 0 
0.00585938 0.294922 0.133603 1.00017 0.000133602 1000 1.00031 1.13378 -0.00235185 -0.142539 10003.1 0 0 0 
0.00585938 0.298828 0.065905 1.00023 6.5905e-05 1000 1.0003 1.06614 -0.00273912 -0.140906 10003 0 0 0 
0.00585938 0.302734 0.0457944 1.00024 4.57944e-05 1000 1.00029 1.04604 -0.0031058 -0.139001 10002.9 0 0 0 
0.00585938 0.306641 0.0489451 1.00023 4.89451e-05 1000 1.00028 1.04917 -0.00343622 -0.136845 10002.8 0 0 0 
0.00585938 0.310547 0.0587777 1.00021 5.87776e-05 1000 1.00027 1.05899 -0.00370476 -0.134474 10002.7 0 0 0 
0.00585938 0.314453 0.0655441 1.00019 6.55441e-05 1000 1.00026 1.06573 -0.0038824 -0.131936 10002.6 0 0 0 
0.00585938 0.318359 0.0650834 1.00018 6.50834e-05 1000 1.00025 1.06526 -0.0039473 -0.129302 10002.5 0 0 0 
0.00585938 0.322266 0.0572854 1.00018 5.72854e-05 1000 1.00024 1.05746 -0.00390103 -0.126643 10002.4 0 0 0 
0.00585938 0.326172 0.0444696 1.00018 4.44696e-05 1000 1.00023 1.04465 -0.00378125 -0.124029 10002.3 0 0 0 
0.00585938 0.330078 0.029918 1.00019 2.9918e-05 1000 1.00022 1.03011 -0.00365497 -0.121474 10002.2 0 0 0 
0.00585938 0.333984 0.0167304 1.00019 1.67303e-05 1000 1.00021 1.01692 -0.00359402 -0.118985 10002.1 0 0 0 
0.00585938 0.337891 0.0070677 1.00019 7.0677e-06 1000 1.0002 1.00726 -0.00363154 -0.116474 10002 0 0 0 
0.00585938 0.341797 0.00175288 1.00019 1.75288e-06 1000 1.00019 1.00194 -0.00373795 -0.113999 10001.9 0 0 0 
0.00585938 0.345703 0.000130287 1.00019 1.30287e-07 1000 1.00019 1.00032 -0.00383483 -0.111463 10001.9 1 0 0 
0.00585938 0.349609 6.13537e-05 1.00018 6.13537e-08 999.999 1.00018 1.00024 -0.00389726 -0.108668 10001.8 1 0 0 
0.00585938 0.353516 0.000347862 1.00017 3.47861e-07 1000 1.00017 1.00051 -0.00387132 -0.105805 10001.7 0 0 0 
0.00585938 0.357422 0.000888058 1.00016 8.88058e-07 1000 1.00016 1.00105 -0.00381952 -0.103177 10001.6 0 0 0 
0.00585938 0.361328 0.00152174 1.00015 1.52174e-06 1000 1.00015 1.00167 -0.00380589 -0.100421 10001.5 0 0 0 
0.00585938 0.365234 0.00207376 1.00014 2.07376e-06 1000 1.00014 1.00222 -0.00387195 -0.0977278 10001.4 0 0 0 
0.00585938 0.369141 0.00240512 1.00013 2.40512e-06 1000 1.00014 1.00254 -0.00400581 -0.0949133 10001.4 0 0 0 
0.00585938 0.373047 0.00245053 1.00013 2.45053e-06 1000 1.00013 1.00258 -0.00415574 -0.0920231 10001.3 0 0 0 
0.00585938 0.376953 0.00222829 1.00012 2.22829e-06 1000 1.00012 1.00235 -0.00426423 -0.0890218 10001.2 0 0 0 
0.00585938 0.380859 0.00182226 1.00011 1.82226e-06 1000 1.00012 1.00194 -0.00429852 -0.0859744 10001.2 0 0 0 
0.00585938 0.384766 0.00134717 1.00011 1.34717e-06 1000 1.00011 1.00145 -0.00426115 -0.0829157 10001.1 0 0 0 
0.00585938 0.388672 0.000912164 1.0001 9.12164e-07 1000 1.0001 1.00101 -0.00417996 -0.0798935 10001 0 0 0 
0.00585938 0.392578 0.000594802 1.0001 5.94802e-07 1000 1.0001 1.00069 -0.00408887 -0.0769209 10001 0 0 0 
0.00585938 0.396484 0.000430307 1.00009 4.30307e-07 1000 1.00009 1.00052 -0.00401343 -0.0739991 10000.9 0 0 0 
0.00585938 0.400391 0.000414466 1.00008 4.14466e-07 1000 1.00008 1.0005 -0.00396518 -0.0711127 10000.8 0 0 0 
0.00585938 0.404297 0.000514885 1.00008 5.14885e-07 1000 1.00008 1.00059 -0.00394332 -0.0682451 10000.8 0 0 0 
0.00585938 0.408203 0.000684916 1.00007 6.84916e-07 1000 1.00007 1.00076 -0.00393965 -0.0653813 10000.7 0 0 0 
0.00585938 0.412109 0.000876197 1.00006 8.76197e-07 1000 1.00007 1.00094 -0.00394363 -0.0625134 10000.7 0 0 0 
0.00585938 0.416016 0.00104786 1.00006 1.04786e-06 1000 1.00006 1.00111 -0.00394589 -0.0596393 10000.6 0 0 0 
0.00585938 0.419922 0.00117197 1.00005 1.17197e-06 1000 1.00005 1.00123 -0.0039401 -0.0567623 10000.5 0 0 0 
0.00585938 0.423828 0.00123553 1.00005 1.23553e-06 1000 1.00005 1.00128 -0.00392361 -0.0538883 10000.5 0 0 0 
0.00585938 0.427734 0.00123964 1.00004 1.23964e-06 1000 1.00004 1.00128 -0.00389714 -0.0510242 10000.4 0 0 0 
0.00585938 0.431641 0.00119646 1.00004 1.19646e-06 1000 1.00004 1.00123 -0.00386381 -0.0481758 10000.4 0 0 0 
0.00585938 0.435547 0.00112482 1.00003 1.12482e-06 1000 1.00003 1.00116 -0.0038278 -0.0453466 10000.3 0 0 0 
0.00585938 0.439453 0.00104528 1.00003 1.04528e-06 1000 1.00003 1.00107 -0.0037931 -0.0425377 10000.3 0 0 0 
0.00585938 0.443359 0.000975729 1.00002 9.75729e-07 1000 1.00002 1.001 -0.00376262 -0.0397475 10000.2 0 0 0 
0.00585938 0.447266 0.000928209 1.00002 9.28209e-07 1000 1.00002 1.00095 -0.0037378 -0.0369726 10000.2 0 0 0 
0.00585938 0.451172 0.000907547 1.00001 9.07547e-07 1000 1.00002 1.00092 -0.00371868 -0.0342092 10000.2 0 0 0 
0.00585938 0.455078 0.000911769 1.00001 9.11769e-07 1000 1.00001 1.00092 -0.00370426 -0.0314529 10000.1 0 0 0 
0.00585938 0.458984 0.000933943 1.00001 9.33943e-07 1000 1.00001 1.00094 -0.00369297 -0.0287022 10000.1 0 0 0 
0.00585938 0.462891 0.000964767 1 9.64767e-07 1000 1 1.00097 -0.00368326 -0.0259533 10000 0 0 0 
0.00585938 0.466797 0.000995158 0.999999 9.95158e-07 1000 1 1.00099 -0.00367394 -0.0232096 10000 0 0 0 
0.00585938 0.470703 0.00101825 0.999995 1.01825e-06 1000 0.999996 1.00101 -0.00366448 -0.020465 9999.96 0 0 0 
0.00585938 0.474609 0.00103048 0.999991 1.03048e-06 1000 0.999992 1.00102 -0.00365499 -0.0177311 9999.92 0 0 0 
0.00585938 0.478516 0.00103164 0.999988 1.03164e-06 1000 0.999989 1.00102 -0.00364599 -0.0149899 9999.89 0 0 0 
0.00585938 0.482422 0.00102426 0.999985 1.02426e-06 1000 0.999986 1.00101 -0.00363816 -0.0122746 9999.86 0 0 0 
0.00585938 0.486328 0.0010124 0.999982 1.0124e-06 1000 0.999983 1.00099 -0.00363203 -0.00953103 9999.83 0 0 0 
0.00585938 0.490234 0.00100042 0.999979 1.00042e-06 1000 0.99998 1.00098 -0.00362784 -0.00686249 9999.8 0 0 0 
0.00585938 0.494141 0.000991725 0.999977 9.91725e-07 1000 0.999978 1.00097 -0.0036255 -0.00409865 9999.78 0 0 0 
0.00585938 0.498047 0.000987863 0.999973 9.87863e-07 1000 0.999974 1.00096 -0.00362464 -0.00153764 9999.74 0 0 0 
0.00976562 0.00195312 1000.18 7.99699e-07 0.999999 1000.18 1.1827 1000.18 0.00287885 -0.000758179 11827 0 0 0 
0.00976562 0.00585938 1000.18 8.35989e-07 0.999999 1000.18 1.17959 1000.18 0.00287881 -0.0017892 11795.9 0 0 0 
0.00976562 0.00976562 1000.18 9.00671e-07 0.999999 1000.18 1.17782 1000.18 0.00287937 -0.00299855 11778.2 0 0 0 
0.00976562 0.0136719 1000.17 9.76859e-07 0.999999 1000.18 1.17511 1000.17 0.00288135 -0.00413364 11751.1 0 0 0 
0.00976562 0.0175781 1000.17 1.04799e-06 0.999999 1000.17 1.1728 1000.17 0.00288546 -0.00533006 11728 0 0 0 
0.00976562 0.0214844 1000.17 1.10251e-06 0.999999 1000.17 1.17017 1000.17 0.00289211 -0.00650296 11701.7 0 0 0 
0.00976562 0.0253906 1000.17 1.13338e-06 0.999999 1000.17 1.16768 1000.17 0.00290139 -0.0076969 11676.8 0 0 0 
0.00976562 0.0292969 1000.16 1.1374e-06 0.999999 1000.17 1.16508 1000.16 0.00291306 -0.00888572 11650.8 0 0 0 
0.00976562 0.0332031 1000.16 1.11487e-06 0.999999 1000.16 1.16251 1000.16 0.00292683 -0.0100853 11625.1 0 0 0 
0.00976562 0.0371094 1000.16 1.0702e-06 0.999999 1000.16 1.1599 1000.16 0.00294247 -0.0112876 11599 0 0 0 
0.00976562 0.0410156 1000.16 1.01279e-06 0.999999 1000.16 1.15729 1000.16 0.00296011 -0.0124983 11572.9 0 0 0 
0.00976562 0.0449219 1000.15 9.56972e-07 0.999999 1000.15 1.15465 1000.15 0.00298018 -0.0137154 11546.5 0 0 0 
0.00976562 0.0488281 1000.15 9.20057e-07 0.999999 1000.15 1.15201 1000.15 0.00300331 -0.0149416 11520.1 0 0 0 
0.00976562 0.0527344 1000.15 9.17921e-07 0.999999 1000.15 1.14934 1000.15 0.00302993 -0.0161772 11493.4 0 0 0 
0.00976562 0.0566406 1000.15 9.58819e-07 0.999999 1000.15 1.14666 1000.15 0.0030599 -0.0174239 11466.6 0 0 0 
0.00976562 0.0605469 1000.14 1.03736e-06 0.999999 1000.14 1.14396 1000.14 0.00309231 -0.0186826 11439.6 0 0 0 
0.00976562 0.0644531 1000.14 1.13156e-06 0.999999 1000.14 1.14124 1000.14 0.00312552 -0.0199541 11412.4 0 0 0 
0.00976562 0.0683594 1000.14 1.20571e-06 0.999999 1000.14 1.13851 1000.14 0.00315737 -0.0212381 11385.1 0 0 0 