TITLE=FvSolution
VARIABLES=X Y RHO1Z1 RHO2Z2 Z1 RHO1 RHO2 RHO U V PRE theta lambdaX lambdaY 
ZONE T=TA, I=128, J=128, DATAPACKING = POINT
0.00195312 0.00195312 1000.16 9.3302e-07 0.999999 1000.16 1.16331 1000.16 -0.000660519 0.000577973 11633.1 0 0 0 
0.00195312 0.00585938 1000.16 9.4411e-07 0.999999 1000.16 1.16039 1000.16 -0.000659279 0.00222339 11603.9 0 0 0 
0.00195312 0.00976562 1000.16 9.8042e-07 0.999999 1000.16 1.15845 1000.16 -0.000656417 0.00367299 11584.5 0 0 0 
0.00195312 0.0136719 1000.15 1.0191e-06 0.999999 1000.16 1.15574 1000.15 -0.0006522 0.00518355 11557.4 0 0 0 
0.00195312 0.0175781 1000.15 1.03305e-06 0.999999 1000.15 1.15344 1000.15 -0.000647211 0.00663331 11534.4 0 0 0 
0.00195312 0.0214844 1000.15 1.02963e-06 0.999999 1000.15 1.15088 1000.15 -0.000641987 0.00809671 11508.8 0 0 0 
0.00195312 0.0253906 1000.15 1.02443e-06 0.999999 1000.15 1.14846 1000.15 -0.000636777 0.00953318 11484.6 0 0 0 
0.00195312 0.0292969 1000.15 1.01918e-06 0.999999 1000.15 1.14595 1000.15 -0.000631481 0.0109673 11459.5 0 0 0 
0.00195312 0.0332031 1000.14 1.01407e-06 0.999999 1000.14 1.14349 1000.14 -0.000625788 0.0123846 11434.9 0 0 0 
0.00195312 0.0371094 1000.14 1.00932e-06 0.999999 1000.14 1.141 1000.14 -0.000619443 0.0137923 11410 0 0 0 
0.00195312 0.0410156 1000.14 1.00511e-06 0.999999 1000.14 1.13852 1000.14 -0.00061254 0.0151843 11385.2 0 0 0 
0.00195312 0.0449219 1000.14 1.00157e-06 0.999999 1000.14 1.13602 1000.14 -0.000605749 0.0165627 11360.2 0 0 0 
0.00195312 0.0488281 1000.13 9.98754e-07 0.999999 1000.13 1.13353 1000.13 -0.000600394 0.0179273 11335.3 0 0 0 
0.00195312 0.0527344 1000.13 9.96674e-07 0.999999 1000.13 1.13104 1000.13 -0.000598316 0.0192837 11310.4 0 0 0 
0.00195312 0.0566406 1000.13 9.95344e-07 0.999999 1000.13 1.12854 1000.13 -0.000601464 0.0206397 11285.4 0 0 0 
0.00195312 0.0605469 1000.13 9.94794e-07 0.999999 1000.13 1.12603 1000.13 -0.000611262 0.0220077 11260.3 0 0 0 
0.00195312 0.0644531 1000.12 9.95046e-07 0.999999 1000.12 1.12353 1000.12 -0.000627919 0.0234008 11235.3 0 0 0 
0.00195312 0.0683594 1000.12 9.95968e-07 0.999999 1000.12 1.12102 1000.12 -0.000650017 0.0248317 11210.2 0 0 0 
0.00195312 0.0722656 1000.12 9.97333e-07 0.999999 1000.12 1.11851 1000.12 -0.00067468 0.0263081 11185.1 0 0 0 
0.00195312 0.0761719 1000.12 9.98851e-07 0.999999 1000.12 1.11599 1000.12 -0.000698451 0.0278315 11159.9 0 0 7.58e-05 
0.00195312 0.0800781 1000.11 1.00022e-06 0.999999 1000.11 1.11347 1000.11 -0.000718674 0.0293972 11134.7 0 0 -0.000459845 
0.00195312 0.0839844 1000.11 1.00121e-06 0.999999 1000.11 1.11095 1000.11 -0.000734899 0.0309973 11109.5 0 0 -0.000535645 
0.00195312 0.0878906 1000.11 1.00167e-06 0.999999 1000.11 1.10842 1000.11 -0.000749659 0.0326261 11084.2 0 0 0 
0.00195312 0.0917969 1000.1 1.00155e-06 0.999999 1000.11 1.10589 1000.1 -0.000768106 0.0342858 11058.9 0 0 -0.000688028 
0.00195312 0.0957031 1000.1 1.00077e-06 0.999999 1000.1 1.10336 1000.1 -0.000796385 0.0359902 11033.6 0 0 -0.000688028 
0.00195312 0.0996094 1000.1 9.99401e-07 0.999999 1000.1 1.10082 1000.1 -0.000839211 0.0377643 11008.2 0 0 0 
0.00195312 0.103516 1000.1 9.97614e-07 0.999999 1000.1 1.09828 1000.1 -0.000897723 0.0396388 10982.8 0 0 0 
0.00195312 0.107422 1000.09 9.98057e-07 0.999999 1000.1 1.09574 1000.09 -0.000968634 0.0416422 10957.4 0 0 0 
0.00195312 0.111328 1000.09 1.00934e-06 0.999999 1000.09 1.09319 1000.09 -0.00104502 0.0437922 10931.9 0 0 0 
0.00195312 0.115234 1000.09 1.03828e-06 0.999999 1000.09 1.09064 1000.09 -0.0011181 0.0460908 10906.4 0 0 0 
0.00195312 0.119141 1000.09 1.08783e-06 0.999999 1000.09 1.08809 1000.09 -0.00117927 0.0485222 10880.9 0 0 0 
0.00195312 0.123047 1000.08 1.15671e-06 0.999999 1000.09 1.08553 1000.08 -0.00122185 0.0510552 10855.3 0 0 0 
0.00195312 0.126953 1000.08 1.23985e-06 0.999999 1000.08 1.08297 1000.08 -0.00124231 0.0536485 10829.7 0 0 0 
0.00195312 0.130859 1000.08 1.3299e-06 0.999999 1000.08 1.0804 1000.08 -0.00124072 0.0562576 10804 0 0 0 
0.00195312 0.134766 1000.08 1.41994e-06 0.999999 1000.08 1.07783 1000.08 -0.00122037 0.0588411 10778.3 0 0 0 
0.00195312 0.138672 1000.07 1.50671e-06 0.999999 1000.08 1.07526 1000.07 -0.00118671 0.061367 10752.6 0 0 0 
0.00195312 0.142578 1000.07 1.59387e-06 0.999999 1000.07 1.07269 1000.07 -0.00114608 0.0638148 10726.9 0 0.000746766 0 
0.00195312 0.146484 1000.07 1.77863e-06 0.999998 1000.07 1.07011 1000.07 -0.00110461 0.0661769 10701.1 0 0 0 
0.00195312 0.150391 1000.07 2.43968e-06 0.999998 1000.07 1.06754 1000.07 -0.00106745 0.0684569 10675.4 0 0 0.000974071 
0.00195312 0.154297 1000.06 4.03242e-06 0.999996 1000.06 1.06496 1000.06 -0.00103827 0.0706673 10649.6 0 0 0.000974071 
0.00195312 0.158203 1000.06 7.02155e-06 0.999993 1000.06 1.06238 1000.06 -0.00101904 0.0728264 10623.8 0 0 0 
0.00195312 0.162109 1000.05 1.18175e-05 0.999989 1000.06 1.05981 1000.05 -0.00101037 0.0749551 10598.1 0 0 0 
0.00195312 0.166016 1000.04 1.86249e-05 0.999982 1000.06 1.05723 1000.04 -0.00101214 0.0770745 10572.3 0 0 -0.000539965 
0.00195312 0.169922 1000.03 2.72226e-05 0.999974 1000.05 1.05465 1000.03 -0.0010242 0.0792056 10546.5 0 0 -0.000539965 
0.00195312 0.173828 1000.02 3.67365e-05 0.999965 1000.05 1.05208 1000.02 -0.00104687 0.0813693 10520.8 0 0 0 
0.00195312 0.177734 1000.01 4.55647e-05 0.999957 1000.05 1.0495 1000.01 -0.00108077 0.0835875 10495 0 0 0 
0.00195312 0.181641 999.998 5.16499e-05 0.999951 1000.05 1.04693 999.998 -0.00112611 0.0858828 10469.3 0 0 0 
0.00195312 0.185547 999.993 5.32534e-05 0.999949 1000.04 1.04436 999.993 -0.00118171 0.0882768 10443.6 0 0 0 
0.00195312 0.189453 999.994 5.00486e-05 0.999952 1000.04 1.04179 999.994 -0.00124433 0.0907864 10417.9 0 0 0 
0.00195312 0.193359 999.997 4.34244e-05 0.999958 1000.04 1.03922 999.997 -0.00130872 0.0934201 10392.2 0 0 0 
0.00195312 0.197266 999.975 6.43411e-05 0.999938 1000.04 1.03664 999.975 -0.00136844 0.0961754 10366.4 0 0 0 
0.00195312 0.201172 999.817 0.000224572 0.999783 1000.03 1.03407 999.817 -0.00141779 0.0990428 10340.7 0 0 0 
0.00195312 0.205078 999.406 0.000644883 0.999375 1000.03 1.03149 999.407 -0.00145462 0.102014 10314.9 0 0 0 
0.00195312 0.208984 998.634 0.00143517 0.998605 1000.03 1.02891 998.635 -0.00148184 0.105087 10289.1 0 0 0 
0.00195312 0.212891 997.418 0.00267744 0.997391 1000.03 1.02634 997.42 -0.00150668 0.108276 10263.4 0 0 0 
0.00195312 0.216797 995.716 0.00441022 0.995692 1000.02 1.0238 995.72 -0.00153836 0.111613 10238 0 0 0 
0.00195312 0.220703 993.538 0.00662064 0.993517 1000.02 1.02128 993.545 -0.00158544 0.115143 10212.8 0 0 0 
0.00195312 0.224609 990.938 0.00925154 0.990919 1000.02 1.01881 990.947 -0.00165332 0.118919 10188.1 0 0 0 
0.00195312 0.228516 987.994 0.01222 0.987977 1000.02 1.01641 988.006 -0.00174239 0.122992 10164.1 0 0 0 
0.00195312 0.232422 984.797 0.0154319 0.984783 1000.01 1.01411 984.812 -0.00184705 0.127393 10141.1 0 0 0 
0.00195312 0.236328 981.443 0.0187899 0.981431 1000.01 1.01191 981.462 -0.00195606 0.132126 10119.1 0 0 0 
0.00195312 0.240234 977.982 0.0222448 0.977972 1000.01 1.00985 978.004 -0.002054 0.137153 10098.5 0 0 0 
0.00195312 0.244141 974.219 0.0259935 0.974211 1000.01 1.00793 974.245 -0.002124 0.142393 10079.3 0 0 0 
0.00195312 0.248047 969.055 0.0311408 0.96905 1000.01 1.00615 969.087 -0.00215268 0.147745 10061.5 0 0 0 
0.00195312 0.251953 957.934 0.042261 0.95793 1000 1.00454 957.977 -0.00213713 0.153146 10045.4 0 0 0.35 
0.00195312 0.255859 931.858 0.0683585 0.931855 1000 1.00313 931.926 -0.00209045 0.158638 10031.3 0 0 0.35 
0.00195312 0.259766 869.528 0.130731 0.869526 1000 1.00197 869.658 -0.00204098 0.164291 10019.7 0 0 0.35 
0.00195312 0.263672 697.149 0.303215 0.697148 1000 1.0012 697.452 -0.00203071 0.170205 10012 0 0 0.35 
0.00195312 0.267578 389.405 0.61102 0.389405 1000 1.00069 390.016 -0.0021138 0.175755 10006.9 0 0 0.35 
0.00195312 0.271484 166.454 0.833939 0.166453 1000 1.00047 167.287 -0.00233491 0.179761 10004.7 0 0 0.35 
0.00195312 0.275391 81.6905 0.918656 0.0816905 1000 1.00038 82.6091 -0.00265357 0.18291 10003.8 0 0 0.35 
0.00195312 0.279297 49.5023 0.950794 0.0495023 1000 1.00031 50.4531 -0.00296412 0.186 10003.1 0 0 0.35 
0.00195312 0.283203 36.1444 0.964097 0.0361444 1000 1.00025 37.1085 -0.00317605 0.189382 10002.5 0 0 0.0179423 
0.00195312 0.287109 29.9579 0.970226 0.0299579 1000 1.00019 30.9282 -0.00324444 0.192886 10001.9 0 0 0 
0.00195312 0.291016 25.718 0.974409 0.025718 1000 1.00013 26.6924 -0.00317325 0.196296 10001.3 0 0 0 
0.00195312 0.294922 22.035 0.978038 0.022035 1000 1.00007 23.0131 -0.00298948 0.19938 10000.7 0 0 0 
0.00195312 0.298828 18.4716 0.981553 0.0184716 1000 1.00002 19.4532 -0.00271806 0.201962 10000.2 0 0 0 
0.00195312 0.302734 14.9722 0.985012 0.0149722 1000 0.999984 15.9572 -0.00237888 0.203902 9999.84 0 0 0 
0.00195312 0.306641 11.6433 0.988309 0.0116433 1000 0.999952 12.6316 -0.00199202 0.2051 9999.52 0 0 -0.00163933 
0.00195312 0.310547 8.61779 0.991312 0.00861779 1000 0.999929 9.6091 -0.0015867 0.205504 9999.29 0 0 0.00214983 
0.00195312 0.314453 5.99906 0.993914 0.00599906 1000 0.999913 6.99297 -0.00121213 0.205136 9999.13 0 0 0.00378916 
0.00195312 0.318359 3.86253 0.99604 0.00386253 1000 0.999902 4.85857 -0.000932235 0.20412 9999.02 0 0 0 
0.00195312 0.322266 2.24978 0.997646 0.00224978 1000 0.999895 3.24742 -0.000781447 0.202697 9998.95 0 0 0.000169934 
0.00195312 0.326172 1.15542 0.998735 0.00115542 1000 0.999891 2.15416 -0.000714468 0.201092 9998.91 0 0 0.000169934 
0.00195312 0.330078 0.519496 0.999368 0.000519496 1000 0.999888 1.51886 -0.000618282 0.199359 9998.88 0 0 0 
0.00195312 0.333984 0.235031 0.99965 0.000235031 1000 0.999885 1.23468 -0.000356003 0.197307 9998.85 0 0 0 
0.00195312 0.337891 0.159979 0.999723 0.000159979 1000 0.999883 1.1597 0.000126144 0.194518 9998.83 0 0 0 
0.00195312 0.341797 0.131579 0.99975 0.000131579 1000 0.999881 1.13133 0.000714034 0.190648 9998.81 0 0.000746646 0 
0.00195312 0.345703 0.103629 0.999775 0.000103629 1000 0.999879 1.1034 0.00127457 0.185623 9998.79 0 0 0 
0.00195312 0.349609 0.0757916 0.999801 7.57916e-05 1000 0.999877 1.07559 0.00170468 0.1796 9998.77 0 0 0 
0.00195312 0.353516 0.0498414 0.999824 4.98414e-05 1000 0.999874 1.04967 0.00195392 0.172907 9998.74 0 0 0 
0.00195312 0.357422 0.0284154 0.999843 2.84154e-05 1000 0.999872 1.02826 0.00203752 0.165898 9998.72 0 0 0 
0.00195312 0.361328 0.0135491 0.999856 1.35491e-05 1000 0.999869 1.0134 0.00200323 0.158854 9998.69 0 0 0 
0.00195312 0.365234 0.0056586 0.999861 5.65861e-06 1000 0.999867 1.00552 0.00189456 0.151962 9998.67 0 0 0 
0.00195312 0.369141 0.00303114 0.999861 3.03114e-06 1000 0.999864 1.00289 0.00174259 0.145337 9998.64 0 0 0 
0.00195312 0.373047 0.00229232 0.999859 2.29232e-06 1000 0.999862 1.00215 0.00157068 0.139042 9998.62 0 0 0 
0.00195312 0.376953 0.00188872 0.999857 1.88872e-06 1000 0.999859 1.00175 0.00139882 0.133096 9998.59 0 0 0 
0.00195312 0.380859 0.00160433 0.999855 1.60433e-06 1000 0.999856 1.00146 0.00124397 0.12748 9998.56 0 0 0 
0.00195312 0.384766 0.00138184 0.999852 1.38184e-06 1000 0.999853 1.00123 0.00111779 0.122148 9998.53 0 0 0 
0.00195312 0.388672 0.00121181 0.999849 1.21181e-06 1000 0.99985 1.00106 0.0010242 0.117037 9998.5 0 -0.000563492 0 
0.00195312 0.392578 0.00109691 0.999846 1.09691e-06 1000 0.999848 1.00094 0.000959203 0.112084 9998.48 0 0.000593609 0.00359248 
0.00195312 0.396484 0.00103566 0.999844 1.03566e-06 1000 0.999845 1.00088 0.000913567 0.10724 9998.45 0 -0.0008263 0.00359248 
0.00195312 0.400391 0.00101458 0.999841 1.01459e-06 1000 0.999842 1.00086 0.000876889 0.102478 9998.42 0 -0.000510567 0 
0.00195312 0.404297 0.0010089 0.999838 1.0089e-06 1000 0.999839 1.00085 0.000841015 0.097785 9998.39 0 0 0 
0.00195312 0.408203 0.00100603 0.999835 1.00603e-06 1000 0.999836 1.00084 0.000801643 0.0931653 9998.36 0 0 0 
0.00195312 0.412109 0.00100403 0.999832 1.00403e-06 1000 0.999833 1.00084 0.000758185 0.0886257 9998.33 0 0 0 
0.00195312 0.416016 0.00100244 0.999829 1.00244e-06 1000 0.99983 1.00083 0.000712542 0.0841721 9998.3 0 0 0 
0.00195312 0.419922 0.00100115 0.999826 1.00115e-06 1000 0.999827 1.00083 0.000667576 0.0798061 9998.27 0 0 0 
0.00195312 0.423828 0.00100016 0.999823 1.00016e-06 1000 0.999824 1.00082 0.000625859 0.0755238 9998.24 0 0 0 
0.00195312 0.427734 0.000999505 0.99982 9.99505e-07 1000 0.999821 1.00082 0.000588939 0.0713173 9998.21 0 0 -0.000658102 
0.00195312 0.431641 0.000999172 0.999817 9.99172e-07 1000 0.999818 1.00082 0.00055715 0.0671766 9998.18 0 0 -0.000658102 
0.00195312 0.435547 0.000999123 0.999814 9.99123e-07 1000 0.999815 1.00081 0.000529842 0.0630915 9998.15 0 0 0 
0.00195312 0.439453 0.000999272 0.999811 9.99273e-07 1000 0.999812 1.00081 0.000505845 0.0590534 9998.12 0 0 0 
0.00195312 0.443359 0.000999517 0.999808 9.99517e-07 1000 0.999809 1.00081 0.000483959 0.0550561 9998.09 0 0 0 
0.00195312 0.447266 0.000999763 0.999805 9.99763e-07 1000 0.999806 1.0008 0.000463298 0.0510962 9998.06 0 0 0 
0.00195312 0.451172 0.000999948 0.999802 9.99949e-07 1000 0.999803 1.0008 0.000443441 0.0471715 9998.03 0 0 0 
0.00195312 0.455078 0.00100005 0.999799 1.00005e-06 1000 0.9998 1.0008 0.000424396 0.0432814 9998 0 0 0 
0.00195312 0.458984 0.00100008 0.999796 1.00008e-06 1000 0.999797 1.0008 0.000406456 0.0394233 9997.97 0 0 0 
0.00195312 0.462891 0.00100006 0.999793 1.00006e-06 1000 0.999794 1.00079 0.000390039 0.0355967 9997.94 0 0 0.00449731 
0.00195312 0.466797 0.00100002 0.99979 1.00002e-06 1000 0.999791 1.00079 0.000375557 0.0317954 9997.91 0 0 0.00449731 
0.00195312 0.470703 0.000999968 0.999788 9.99968e-07 1000 0.999789 1.00079 0.000363348 0.0280204 9997.89 0 0 0 
0.00195312 0.474609 0.000999908 0.999785 9.99909e-07 1000 0.999786 1.00078 0.000353652 0.0242589 9997.86 0 0 0 
0.00195312 0.478516 0.00099984 0.999782 9.99841e-07 1000 0.999783 1.00078 0.000346582 0.0205204 9997.83 0 0 0 
0.00195312 0.482422 0.000999761 0.99978 9.99761e-07 1000 0.999781 1.00078 0.000342085 0.0167744 9997.81 0 0 0 
0.00195312 0.486328 0.000999672 0.999777 9.99672e-07 1000 0.999778 1.00078 0.000339858 0.0130585 9997.78 0 0 0 
0.00195312 0.490234 0.000999581 0.999774 9.99581e-07 1000 0.999775 1.00077 0.000339306 0.0092896 9997.75 0 0 0 
0.00195312 0.494141 0.000999506 0.999772 9.99507e-07 1000 0.999773 1.00077 0.000339596 0.00559225 9997.73 0 0 0 
0.00195312 0.498047 0.000999463 0.99977 9.99463e-07 1000 0.999771 1.00077 0.000339934 0.00170446 9997.71 0 0 0 
0.00585938 0.00195312 1000.16 9.33308e-07 0.999999 1000.16 1.16318 1000.16 -0.00196821 0.000577596 11631.8 0 0 0 
0.00585938 0.00585938 1000.16 9.4441e-07 0.999999 1000.16 1.16025 1000.16 -0.00196453 0.0022223 11602.5 0 0 0 
0.00585938 0.00976562 1000.16 9.80754e-07 0.999999 1000.16 1.15832 1000.16 -0.00195603 0.00367131 11583.2 0 0 0 
0.00585938 0.0136719 1000.15 1.01946e-06 0.999999 1000.16 1.1556 1000.15 -0.0019435 0.00518148 11556 0 0 0 
0.00585938 0.0175781 1000.15 1.03341e-06 0.999999 1000.15 1.1533 1000.15 -0.00192866 0.00663106 11533 0 0 0 
0.00585938 0.0214844 1000.15 1.03e-06 0.999999 1000.15 1.15074 1000.15 -0.00191311 0.00809451 11507.4 0 0 0 
0.00585938 0.0253906 1000.15 1.02482e-06 0.999999 1000.15 1.14833 1000.15 -0.00189758 0.00953121 11483.3 0 0 0 
0.00585938 0.0292969 1000.14 1.01957e-06 0.999999 1000.15 1.14582 1000.14 -0.00188172 0.0109656 11458.2 0 0 0 
0.00585938 0.0332031 1000.14 1.01447e-06 0.999999 1000.14 1.14336 1000.14 -0.00186461 0.0123833 11433.6 0 0 0 
0.00585938 0.0371094 1000.14 1.00969e-06 0.999999 1000.14 1.14086 1000.14 -0.00184549 0.0137912 11408.6 0 0 0 
0.00585938 0.0410156 1000.14 1.00544e-06 0.999999 1000.14 1.13838 1000.14 -0.00182473 0.0151833 11383.8 0 0 0 
0.00585938 0.0449219 1000.14 1.00186e-06 0.999999 1000.14 1.13589 1000.14 -0.00180446 0.0165617 11358.9 0 0 0 
0.00585938 0.0488281 1000.13 9.9903e-07 0.999999 1000.13 1.1334 1000.13 -0.00178873 0.0179268 11334 0 0 0 
0.00585938 0.0527344 1000.13 9.96979e-07 0.999999 1000.13 1.1309 1000.13 -0.00178297 0.0192845 11309 0 0 0 
0.00585938 0.0566406 1000.13 9.95716e-07 0.999999 1000.13 1.1284 1000.13 -0.00179273 0.0206426 11284 0 0 0 
0.00585938 0.0605469 1000.13 9.95231e-07 0.999999 1000.13 1.1259 1000.13 -0.00182178 0.0220125 11259 0 0 0 
0.00585938 0.0644531 1000.12 9.95475e-07 0.999999 1000.12 1.12339 1000.12 -0.00187029 0.0234057 11233.9 0 0 0 
0.00585938 0.0683594 1000.12 9.96384e-07 0.999999 1000.12 1.12088 1000.12 -0.0019338 0.0248319 11208.8 0 0 0 
0.00585938 0.0722656 1000.12 9.97746e-07 0.999999 1000.12 1.11837 1000.12 -0.00200398 0.0262964 11183.7 0 0 0 
0.00585938 0.0761719 1000.11 9.99263e-07 0.999999 1000.12 1.11586 1000.11 -0.00207126 0.0277996 11158.6 0 0 7.58e-05 
0.00585938 0.0800781 1000.11 1.00063e-06 0.999999 1000.11 1.11334 1000.11 -0.00212884 0.0293375 11133.4 0 0 -0.000459845 
0.00585938 0.0839844 1000.11 1.00163e-06 0.999999 1000.11 1.11081 1000.11 -0.00217655 0.0309057 11108.1 0 0 -0.000535645 
0.00585938 0.0878906 1000.11 1.00207e-06 0.999999 1000.11 1.10829 1000.11 -0.00222274 0.032504 11082.9 0 0 0 
0.00585938 0.0917969 1000.1 1.00187e-06 0.999999 1000.11 1.10575 1000.1 -0.0022829 0.0341413 11057.5 0 0 -0.000688028 
0.00585938 0.0957031 1000.1 1.00105e-06 0.999999 1000.1 1.10322 1000.1 -0.0023746 0.0358369 11032.2 0 0 -0.000688028 
0.00585938 0.0996094 1000.1 9.99661e-07 0.999999 1000.1 1.10068 1000.1 -0.00251037 0.0376184 11006.8 0 0 0 
0.00585938 0.103516 1000.1 9.97883e-07 0.999999 1000.1 1.09813 1000.1 -0.00269187 0.0395156 10981.3 0 0 0 
0.00585938 0.107422 1000.09 9.9833e-07 0.999999 1000.1 1.09558 1000.09 -0.00290809 0.0415525 10955.8 0 0 0 
0.00585938 0.111328 1000.09 1.00961e-06 0.999999 1000.09 1.09303 1000.09 -0.00313799 0.0437413 10930.3 0 0 0 
0.00585938 0.115234 1000.09 1.03857e-06 0.999999 1000.09 1.09047 1000.09 -0.00335569 0.0460784 10904.7 0 0 0 
0.00585938 0.119141 1000.09 1.08814e-06 0.999999 1000.09 1.08792 1000.09 -0.00353617 0.048544 10879.2 0 0 0 
0.00585938 0.123047 1000.08 1.15704e-06 0.999999 1000.09 1.08536 1000.08 -0.00366025 0.0511048 10853.6 0 0 0 
0.00585938 0.126953 1000.08 1.24018e-06 0.999999 1000.08 1.08279 1000.08 -0.00371809 0.0537186 10827.9 0 0 0 
0.00585938 0.130859 1000.08 1.33033e-06 0.999999 1000.08 1.08023 1000.08 -0.0037104 0.0563412 10802.3 0 0 0 
0.00585938 0.134766 1000.08 1.42068e-06 0.999999 1000.08 1.07766 1000.08 -0.00364715 0.0589326 10776.6 0 0 0 
0.00585938 0.138672 1000.07 1.50814e-06 0.999999 1000.08 1.07509 1000.07 -0.0035444 0.0614615 10750.9 0 0 0 
0.00585938 0.142578 1000.07 1.59608e-06 0.999999 1000.07 1.07252 1000.07 -0.00342078 0.0639081 10725.2 0 0 0 
0.00585938 0.146484 1000.07 1.78088e-06 0.999998 1000.07 1.06995 1000.07 -0.00329446 0.0662643 10699.5 0 0 0 
0.00585938 0.150391 1000.07 2.43893e-06 0.999998 1000.07 1.06738 1000.07 -0.00318088 0.0685332 10673.8 0 0 0.000974071 
0.00585938 0.154297 1000.06 4.02978e-06 0.999996 1000.06 1.06481 1000.06 -0.00309118 0.0707274 10648.1 0 0 0.000974071 
0.00585938 0.158203 1000.06 7.01835e-06 0.999993 1000.06 1.06223 1000.06 -0.00303162 0.0728654 10622.3 0 0 0 
0.00585938 0.162109 1000.05 1.18196e-05 0.999989 1000.06 1.05965 1000.05 -0.00300433 0.0749691 10596.5 0 0 0 
0.00585938 0.166016 1000.04 1.86479e-05 0.999982 1000.06 1.05708 1000.04 -0.00300919 0.0770617 10570.8 0 0.000425573 5.06144e-05 
0.00585938 0.169922 1000.03 2.72827e-05 0.999974 1000.05 1.0545 1000.03 -0.00304601 0.0791663 10545 0 0 5.06144e-05 
0.00585938 0.173828 1000.02 3.68478e-05 0.999965 1000.05 1.05193 1000.02 -0.00311573 0.0813065 10519.3 0 0 0 
0.00585938 0.177734 1000.01 4.57331e-05 0.999956 1000.05 1.04935 1000.01 -0.00321987 0.0835064 10493.5 0 0 0 
0.00585938 0.181641 999.997 5.18751e-05 0.99995 1000.05 1.04677 999.997 -0.00335832 0.0857896 10467.7 0 0 0 
0.00585938 0.185547 999.993 5.35321e-05 0.999949 1000.04 1.0442 999.993 -0.0035266 0.0881768 10442 0 0 0 
0.00585938 0.189453 999.993 5.03746e-05 0.999952 1000.04 1.04162 999.993 -0.00371423 0.0906822 10416.2 0 0 0 
0.00585938 0.193359 999.997 4.37893e-05 0.999958 1000.04 1.03905 999.997 -0.00390524 0.0933105 10390.5 0 0 0 
0.00585938 0.197266 999.974 6.47417e-05 0.999938 1000.04 1.03648 999.974 -0.00408123 0.0960558 10364.8 0 0 0 
0.00585938 0.201172 999.816 0.000225 0.999782 1000.03 1.03391 999.817 -0.00422705 0.0989085 10339.1 0 0 0 
0.00585938 0.205078 999.406 0.000645289 0.999374 1000.03 1.03135 999.406 -0.00433765 0.101863 10313.5 0 0 0 
0.00585938 0.208984 998.633 0.00143547 0.998605 1000.03 1.02879 998.635 -0.00442176 0.104923 10287.9 0 0 0 
0.00585938 0.212891 997.417 0.00267776 0.997391 1000.03 1.02624 997.42 -0.00450003 0.108105 10262.4 0 0 0 
0.00585938 0.216797 995.715 0.00441065 0.995692 1000.02 1.02371 995.72 -0.0045989 0.111443 10237.1 0 0 0 
0.00585938 0.220703 993.537 0.00662122 0.993516 1000.02 1.02121 993.544 -0.00474294 0.114982 10212.1 0 0 0 
0.00585938 0.224609 990.937 0.00925225 0.990918 1000.02 1.01875 990.946 -0.00494754 0.118773 10187.5 0 0 0 
0.00585938 0.228516 987.992 0.0122208 0.987976 1000.02 1.01635 988.004 -0.00521325 0.12286 10163.5 0 0 0 
0.00585938 0.232422 984.795 0.0154328 0.984781 1000.01 1.01405 984.81 -0.00552315 0.127273 10140.5 0 0 0 
0.00585938 0.236328 981.441 0.0187909 0.981429 1000.01 1.01186 981.46 -0.00584394 0.132009 10118.6 0 0 0 
0.00585938 0.240234 977.979 0.0222463 0.977969 1000.01 1.0098 978.001 -0.00613024 0.137028 10098 0 0 0 
0.00585938 0.244141 974.214 0.0259971 0.974206 1000.01 1.00788 974.24 -0.00633283 0.142246 10078.8 0 0 0 
0.00585938 0.248047 969.046 0.0311494 0.96904 1000.01 1.00611 969.077 -0.00641314 0.147566 10061.1 0 0 0 
0.00585938 0.251953 957.911 0.0422826 0.957907 1000 1.0045 957.953 -0.00636321 0.152929 10045 0 0 0.35 
0.00585938 0.255859 931.804 0.0684099 0.931802 1000 1.0031 931.873 -0.00622256 0.158386 10031 0 0 0.35 
0.00585938 0.259766 869.389 0.130867 0.869387 1000 1.00194 869.52 -0.00607642 0.164012 10019.4 0 0 0.35 
0.00585938 0.263672 696.791 0.30357 0.69679 1000 1.00119 697.094 -0.00605586 0.169913 10011.9 0 0 0.35 
0.00585938 0.267578 388.993 0.611429 0.388992 1000 1.00069 389.604 -0.00633191 0.175483 10006.9 0 0 0.35 
0.00585938 0.271484 166.296 0.834096 0.166296 1000 1.00047 167.13 -0.00702567 0.179583 10004.7 0 0 0.35 
0.00585938 0.275391 81.6547 0.91869 0.0816547 1000 1.00038 82.5734 -0.00798328 0.182862 10003.8 0 0 0.35 
0.00585938 0.279297 49.4892 0.950805 0.0494892 1000 1.00031 50.44 -0.00888539 0.186052 10003.1 0 0 0.35 
0.00585938 0.283203 36.1401 0.964099 0.0361401 1000 1.00025 37.1042 -0.00948518 0.189474 10002.5 0 0 0.0168106 
0.00585938 0.287109 29.9582 0.970224 0.0299582 1000 1.00019 30.9284 -0.00966104 0.192957 10001.9 0 0 0 
0.00585938 0.291016 25.7196 0.974406 0.0257196 1000 1.00013 26.694 -0.00943131 0.196298 10001.3 0 0 0 
0.00585938 0.294922 22.0352 0.978036 0.0220352 1000 1.00007 23.0132 -0.00887635 0.199287 10000.7 0 0 0 
0.00585938 0.298828 18.4689 0.981554 0.0184689 1000 1.00002 19.4505 -0.00806652 0.201767 10000.2 0 0.000276661 0 
0.00585938 0.302734 14.9666 0.985017 0.0149666 1000 0.999983 15.9516 -0.00705822 0.203609 9999.83 0 0 0 
0.00585938 0.306641 11.6358 0.988316 0.0116358 1000 0.999952 12.6241 -0.00591009 0.204726 9999.52 0 0 -0.00200318 
0.00585938 0.310547 8.60957 0.99132 0.00860957 1000 0.999929 9.60089 -0.00471077 0.205075 9999.29 0 0 0.00109228 
0.00585938 0.314453 5.99105 0.993922 0.00599105 1000 0.999913 6.98498 -0.0036092 0.204685 9999.13 0 0 0.00309546 
0.00585938 0.318359 3.85544 0.996047 0.00385544 1000 0.999902 4.85149 -0.00279576 0.203683 9999.02 0 0 0 
0.00585938 0.322266 2.24418 0.997651 0.00224418 1000 0.999895 3.24183 -0.00236976 0.202313 9998.95 0 0 0.000169934 
0.00585938 0.326172 1.1518 0.998739 0.0011518 1000 0.999891 2.15054 -0.00217424 0.200782 9998.91 0 0 0.000169934 
0.00585938 0.330078 0.517889 0.99937 0.000517889 1000 0.999888 1.51726 -0.00188832 0.199118 9998.88 0 0 0 
0.00585938 0.333984 0.23467 0.999651 0.000234671 1000 0.999886 1.23432 -0.00111059 0.197125 9998.86 0 0 0 
0.00585938 0.337891 0.159948 0.999724 0.000159948 1000 0.999884 1.15967 0.000325628 0.194378 9998.84 0 0 0 
0.00585938 0.341797 0.131586 0.99975 0.000131586 1000 0.999882 1.13134 0.00209373 0.190523 9998.82 0 0 0 
0.00585938 0.345703 0.103632 0.999776 0.000103632 1000 0.999879 1.10341 0.00377699 0.185489 9998.79 0 -0.00131532 0 
0.00585938 0.349609 0.075788 0.999801 7.5788e-05 1000 0.999877 1.07559 0.00505641 0.179463 9998.77 0 0 0 
0.00585938 0.353516 0.0498349 0.999825 4.98349e-05 1000 0.999875 1.04966 0.0057888 0.172791 9998.75 0 0 0 
0.00585938 0.357422 0.0284122 0.999844 2.84122e-05 1000 0.999872 1.02826 0.00603332 0.165824 9998.72 0 0 0 
0.00585938 0.361328 0.0135498 0.999856 1.35498e-05 1000 0.99987 1.01341 0.00593528 0.158825 9998.7 0 0 0 
0.00585938 0.365234 0.00566017 0.999862 5.66017e-06 1000 0.999867 1.00552 0.00561828 0.151967 9998.67 0 0 0 
0.00585938 0.369141 0.00303158 0.999862 3.03158e-06 1000 0.999865 1.00289 0.00517144 0.145364 9998.65 0 0 0 
0.00585938 0.373047 0.00229233 0.99986 2.29233e-06 1000 0.999862 1.00215 0.00466399 0.139078 9998.62 0 0 0 
0.00585938 0.376953 0.00188864 0.999857 1.88864e-06 1000 0.999859 1.00175 0.0041553 0.133131 9998.59 0 0 0 
0.00585938 0.380859 0.00160419 0.999855 1.60419e-06 1000 0.999856 1.00146 0.00369565 0.127508 9998.56 0 0 0 
0.00585938 0.384766 0.00138169 0.999852 1.38169e-06 1000 0.999854 1.00123 0.00331982 0.122166 9998.54 0 0 0 
0.00585938 0.388672 0.00121165 0.99985 1.21165e-06 1000 0.999851 1.00106 0.00304008 0.117045 9998.51 0 -0.000563492 0 
0.00585938 0.392578 0.00109677 0.999847 1.09677e-06 1000 0.999848 1.00094 0.00284512 0.112084 9998.48 0 0 0.00333718 
0.00585938 0.396484 0.00103558 0.999844 1.03558e-06 1000 0.999845 1.00088 0.00270784 0.107236 9998.45 0 -0.0008263 0.00333718 
0.00585938 0.400391 0.00101455 0.999841 1.01455e-06 1000 0.999842 1.00086 0.00259749 0.102471 9998.42 0 -0.000903542 0 
0.00585938 0.404297 0.00100888 0.999838 1.00888e-06 1000 0.999839 1.00085 0.00248987 0.0977782 9998.39 0 0 0 
0.00585938 0.408203 0.00100601 0.999835 1.00601e-06 1000 0.999836 1.00084 0.00237213 0.0931594 9998.36 0 0 0 
0.00585938 0.412109 0.00100402 0.999832 1.00402e-06 1000 0.999833 1.00084 0.0022424 0.0886209 9998.33 0 0 0 
0.00585938 0.416016 0.00100243 0.999829 1.00243e-06 1000 0.99983 1.00083 0.00210623 0.0841682 9998.3 0 0 0 
0.00585938 0.419922 0.00100115 0.999826 1.00115e-06 1000 0.999827 1.00083 0.00197202 0.0798026 9998.27 0 0 0 
0.00585938 0.423828 0.00100016 0.999823 1.00016e-06 1000 0.999824 1.00082 0.00184737 0.0755202 9998.24 0 -0.00019865 0 
0.00585938 0.427734 0.000999508 0.99982 9.99508e-07 1000 0.999821 1.00082 0.0017369 0.0713133 9998.21 0 -0.000732714 -3.4936e-05 
0.00585938 0.431641 0.000999176 0.999817 9.99176e-07 1000 0.999818 1.00082 0.00164163 0.0671721 9998.18 0 0.000492708 -3.4936e-05 
0.00585938 0.435547 0.000999127 0.999814 9.99127e-07 1000 0.999815 1.00081 0.00155969 0.0630866 9998.15 0 0 0 
0.00585938 0.439453 0.000999277 0.999811 9.99277e-07 1000 0.999812 1.00081 0.00148764 0.0590484 9998.12 0 0 0 
0.00585938 0.443359 0.000999521 0.999808 9.99521e-07 1000 0.999809 1.00081 0.00142193 0.0550513 9998.09 0 0.000672704 0 
0.00585938 0.447266 0.000999766 0.999805 9.99767e-07 1000 0.999806 1.0008 0.00135991 0.0510917 9998.06 0 0 0 
0.00585938 0.451172 0.000999951 0.999802 9.99951e-07 1000 0.999803 1.0008 0.00130034 0.0471674 9998.03 0 0 0 
0.00585938 0.455078 0.00100005 0.999799 1.00005e-06 1000 0.9998 1.0008 0.00124324 0.0432778 9998 0 0 0 
0.00585938 0.458984 0.00100008 0.999796 1.00008e-06 1000 0.999797 1.0008 0.00118948 0.0394201 9997.97 0 0 0 
0.00585938 0.462891 0.00100007 0.999794 1.00007e-06 1000 0.999795 1.00079 0.00114029 0.0355938 9997.95 0 -9.40716e-05 0.00437496 
0.00585938 0.466797 0.00100002 0.999791 1.00002e-06 1000 0.999792 1.00079 0.00109692 0.0317927 9997.92 0 -0.000562585 0.00437496 
0.00585938 0.470703 0.000999971 0.999788 9.99971e-07 1000 0.999789 1.00079 0.00106035 0.0280181 9997.89 0 0 0 
0.00585938 0.474609 0.000999911 0.999785 9.99912e-07 1000 0.999786 1.00079 0.00103131 0.0242568 9997.86 0 -0.0009147 0 
0.00585938 0.478516 0.000999843 0.999783 9.99844e-07 1000 0.999784 1.00078 0.00101013 0.0205186 9997.84 0 0 0 
0.00585938 0.482422 0.000999764 0.99978 9.99764e-07 1000 0.999781 1.00078 0.000996652 0.0167729 9997.81 0 0 0 
0.00585938 0.486328 0.000999675 0.999778 9.99675e-07 1000 0.999779 1.00078 0.000989979 0.0130573 9997.79 0 0 0 
0.00585938 0.490234 0.000999584 0.999775 9.99584e-07 1000 0.999776 1.00077 0.000988334 0.00928882 9997.76 0 0 0 
0.00585938 0.494141 0.000999509 0.999773 9.99509e-07 1000 0.999774 1.00077 0.000989226 0.00559182 9997.74 0 0.000281503 0 
0.00585938 0.498047 0.000999466 0.99977 9.99466e-07 1000 0.999771 1.00077 0.000990261 0.00170432 9997.71 0 0 0 
0.00976562 0.00195312 1000.16 9.33579e-07 0.999999 1000.16 1.16318 1000.16 -0.00327797 0.000576828 11631.8 0 0 0 
0.00976562 0.00585938 1000.16 9.44702e-07 0.999999 1000.16 1.16025 1000.16 -0.00327198 0.0022201 11602.5 0 0 0 
0.00976562 0.00976562 1000.16 9.81108e-07 0.999999 1000.16 1.15832 1000.16 -0.00325811 0.00366794 11583.2 0 0.000825626 0 
0.00976562 0.0136719 1000.15 1.01987e-06 0.999999 1000.16 1.1556 1000.15 -0.00323758 0.00517733 11556 0 0 0 
0.00976562 0.0175781 1000.15 1.03383e-06 0.999999 1000.15 1.15331 1000.15 -0.0032132 0.00662652 11533.1 0 0 0 
0.00976562 0.0214844 1000.15 1.03042e-06 0.999999 1000.15 1.15074 1000.15 -0.00318759 0.00808988 11507.4 0 0 0 
0.00976562 0.0253906 1000.15 1.02526e-06 0.999999 1000.15 1.14833 1000.15 -0.00316193 0.00952676 11483.3 0 0 0 
0.00976562 0.0292969 1000.14 1.02004e-06 0.999999 1000.15 1.14582 1000.14 -0.00313566 0.0109616 11458.2 0 0 0 
0.00976562 0.0332031 1000.14 1.01493e-06 0.999999 1000.14 1.14336 1000.14 -0.00310719 0.01238 11433.6 0 0 0 
0.00976562 0.0371094 1000.14 1.01012e-06 0.999999 1000.14 1.14086 1000.14 -0.0030753 0.013789 11408.6 0 0 -7.4387e-05 
0.00976562 0.0410156 1000.14 1.00579e-06 0.999999 1000.14 1.13838 1000.14 -0.00304079 0.0151825 11383.8 0 0 -7.4387e-05 
0.00976562 0.0449219 1000.14 1.00212e-06 0.999999 1000.14 1.13589 1000.14 -0.00300747 0.0165631 11358.9 0 0 0 