TITLE=FvSolution
VARIABLES=X Y RHO1Z1 RHO2Z2 Z1 RHO1 RHO2 RHO U V PRE theta lambdaX lambdaY 
ZONE T=TA, I=128, J=128, DATAPACKING = POINT
0.00195312 0.00195312 1000.1 9.43345e-07 0.999999 1000.1 1.10283 1000.1 -0.000698952 0.00047149 11028.3 0 0 0 
0.00195312 0.00585938 1000.1 9.53125e-07 0.999999 1000.1 1.0999 1000.1 -0.000696932 0.0019032 10999 0 0 0 
0.00195312 0.00976562 1000.1 9.84966e-07 0.999999 1000.1 1.09801 1000.1 -0.000692595 0.00313863 10980.1 0 0 0 
0.00195312 0.0136719 1000.09 1.01884e-06 0.999999 1000.1 1.09537 1000.09 -0.000686784 0.00442986 10953.7 0 0 0 
0.00195312 0.0175781 1000.09 1.03104e-06 0.999999 1000.09 1.09316 1000.09 -0.000680873 0.00565964 10931.6 0 0 0 
0.00195312 0.0214844 1000.09 1.02736e-06 0.999999 1000.09 1.09072 1000.09 -0.000676179 0.00690252 10907.2 0 0 0 
0.00195312 0.0253906 1000.09 1.02186e-06 0.999999 1000.09 1.08844 1000.09 -0.000673613 0.00812286 10884.4 0 0 0 
0.00195312 0.0292969 1000.09 1.01638e-06 0.999999 1000.09 1.0861 1000.09 -0.000673512 0.00934925 10861 0 0 0 
0.00195312 0.0332031 1000.08 1.01113e-06 0.999999 1000.08 1.08382 1000.08 -0.000675691 0.0105732 10838.2 0 0 0 
0.00195312 0.0371094 1000.08 1.00629e-06 0.999999 1000.08 1.08154 1000.08 -0.000679623 0.0118067 10815.4 0 0 0 
0.00195312 0.0410156 1000.08 1.00206e-06 0.999999 1000.08 1.0793 1000.08 -0.00068466 0.0130482 10793 0 0 0 
0.00195312 0.0449219 1000.08 9.98635e-07 0.999999 1000.08 1.07707 1000.08 -0.000690225 0.014302 10770.7 0 0 0 
0.00195312 0.0488281 1000.07 9.96175e-07 0.999999 1000.07 1.07487 1000.07 -0.000695919 0.0155672 10748.7 0 0 0 
0.00195312 0.0527344 1000.07 9.94739e-07 0.999999 1000.07 1.07268 1000.07 -0.00070156 0.0168447 10726.8 0 0 -0.0010591 
0.00195312 0.0566406 1000.07 9.94302e-07 0.999999 1000.07 1.07052 1000.07 -0.000707151 0.0181341 10705.2 0 0 -0.0010591 
0.00195312 0.0605469 1000.07 9.94753e-07 0.999999 1000.07 1.06838 1000.07 -0.000712817 0.0194356 10683.8 0 0 0.00070895 
0.00195312 0.0644531 1000.07 9.95907e-07 0.999999 1000.07 1.06626 1000.07 -0.000718728 0.0207494 10662.6 0 0 0.00070895 
0.00195312 0.0683594 1000.06 9.97515e-07 0.999999 1000.06 1.06417 1000.06 -0.000725041 0.0220764 10641.7 0 0 0 
0.00195312 0.0722656 1000.06 9.99287e-07 0.999999 1000.06 1.0621 1000.06 -0.000731854 0.0234175 10621 0 0 0 
0.00195312 0.0761719 1000.06 1.00094e-06 0.999999 1000.06 1.06004 1000.06 -0.00073919 0.0247737 10600.4 0 0 0 
0.00195312 0.0800781 1000.06 1.00226e-06 0.999999 1000.06 1.05802 1000.06 -0.000747009 0.0261462 10580.2 0 0 -0.000325583 
0.00195312 0.0839844 1000.06 1.00316e-06 0.999999 1000.06 1.05601 1000.06 -0.000755225 0.0275359 10560.1 0 0 -0.000325583 
0.00195312 0.0878906 1000.05 1.00367e-06 0.999999 1000.05 1.05402 1000.05 -0.000763739 0.0289436 10540.2 0 0 0 
0.00195312 0.0917969 1000.05 1.00398e-06 0.999999 1000.05 1.05206 1000.05 -0.000772466 0.0303699 10520.6 0 0 0 
0.00195312 0.0957031 1000.05 1.00445e-06 0.999999 1000.05 1.05011 1000.05 -0.000781369 0.0318152 10501.1 0 0 0 
0.00195312 0.0996094 1000.05 1.00689e-06 0.999999 1000.05 1.04819 1000.05 -0.000790479 0.0332801 10481.9 0 0 -0.00198267 
0.00195312 0.103516 1000.05 1.0151e-06 0.999999 1000.05 1.04628 1000.05 -0.000799904 0.034765 10462.8 0 0 -0.00198267 
0.00195312 0.107422 1000.04 1.03146e-06 0.999999 1000.04 1.04439 1000.04 -0.000809828 0.0362709 10443.9 0 0 0 
0.00195312 0.111328 1000.04 1.05707e-06 0.999999 1000.04 1.04253 1000.04 -0.000820478 0.0377991 10425.3 0 0 0 
0.00195312 0.115234 1000.04 1.09298e-06 0.999999 1000.04 1.04068 1000.04 -0.00083208 0.0393514 10406.8 0 0 0 
0.00195312 0.119141 1000.04 1.14191e-06 0.999999 1000.04 1.03884 1000.04 -0.000844791 0.0409299 10388.4 0 0 0 
0.00195312 0.123047 1000.04 1.20892e-06 0.999999 1000.04 1.03703 1000.04 -0.000858633 0.0425369 10370.3 0 0 0 
0.00195312 0.126953 1000.03 1.29796e-06 0.999999 1000.04 1.03523 1000.03 -0.000873447 0.0441747 10352.3 0 0 0 
0.00195312 0.130859 1000.03 1.4003e-06 0.999999 1000.03 1.03344 1000.03 -0.000888877 0.0458448 10334.4 0 0 0 
0.00195312 0.134766 1000.03 1.49568e-06 0.999999 1000.03 1.03167 1000.03 -0.00090441 0.0475482 10316.7 0 0 0 
0.00195312 0.138672 1000.03 1.85931e-06 0.999998 1000.03 1.02992 1000.03 -0.00091946 0.0492845 10299.2 0 0 0 
0.00195312 0.142578 1000.02 3.73788e-06 0.999996 1000.03 1.02818 1000.02 -0.000933507 0.0510522 10281.8 0 0 0 
0.00195312 0.146484 1000.02 8.32849e-06 0.999992 1000.03 1.02646 1000.02 -0.000946265 0.0528489 10264.6 0 0 0 
0.00195312 0.150391 1000.01 1.54545e-05 0.999985 1000.02 1.02475 1000.01 -0.000957812 0.0546718 10247.5 0 -0.00134893 0 
0.00195312 0.154297 1000 2.34232e-05 0.999977 1000.02 1.02305 1000 -0.000968612 0.056519 10230.5 0 0 0 
0.00195312 0.158203 999.992 3.04543e-05 0.99997 1000.02 1.02137 999.992 -0.000979382 0.0583897 10213.7 0 0 0.000102252 
0.00195312 0.162109 999.984 3.59537e-05 0.999965 1000.02 1.0197 999.984 -0.000990851 0.0602846 10197 0 0 0.000102252 
0.00195312 0.166016 999.978 4.08106e-05 0.99996 1000.02 1.01804 999.978 -0.00100346 0.0622058 10180.4 0 0 0 
0.00195312 0.169922 999.97 4.71465e-05 0.999954 1000.02 1.0164 999.97 -0.00101713 0.0641555 10164 0 0 0 
0.00195312 0.173828 999.957 5.88614e-05 0.999942 1000.01 1.01476 999.957 -0.00103112 0.0661351 10147.6 0 0 0 
0.00195312 0.177734 999.931 8.34678e-05 0.999918 1000.01 1.01314 999.931 -0.00104411 0.0681432 10131.4 0 0 0 
0.00195312 0.181641 999.813 0.000200749 0.999802 1000.01 1.01154 999.813 -0.0010546 0.0701749 10115.4 0 0 0 
0.00195312 0.185547 999.371 0.000645781 0.999361 1000.01 1.00994 999.371 -0.00106247 0.0722159 10099.4 0 0.00105079 0 
0.00195312 0.189453 998.444 0.00157705 0.998436 1000.01 1.00836 998.446 -0.0010707 0.0742461 10083.6 0 0.00106994 0 
0.00195312 0.193359 996.977 0.00305069 0.99697 1000.01 1.00681 996.98 -0.00108471 0.0762536 10068.1 0 -0.000728372 0 
0.00195312 0.197266 994.99 0.00504156 0.994985 1000.01 1.00532 994.995 -0.00110972 0.0782399 10053.2 0 0 0 
0.00195312 0.201172 992.577 0.00745627 0.992573 1000 1.0039 992.584 -0.00114894 0.0802215 10039 0 0 0 
0.00195312 0.205078 989.876 0.0101526 0.989873 1000 1.00258 989.886 -0.00120278 0.0822254 10025.8 0 0 0 
0.00195312 0.208984 987.001 0.0130178 0.987 1000 1.00137 987.014 -0.00126871 0.0842849 10013.7 0 0 0 
0.00195312 0.212891 983.84 0.016165 0.98384 1000 1.00029 983.856 -0.00134089 0.0864265 10002.9 0 0 0 
0.00195312 0.216797 979.54 0.0204463 0.97954 999.999 0.999354 979.56 -0.0014096 0.0886577 9993.54 0 0 0 
0.00195312 0.220703 970.447 0.0295095 0.970449 999.999 0.99858 970.477 -0.00146099 0.0909255 9985.8 0 -1.54833e-05 0.349983 
0.00195312 0.224609 949.115 0.0507832 0.949116 999.998 0.998027 949.165 -0.00147825 0.0930734 9980.27 0 0 0.35 
0.00195312 0.228516 898.775 0.101002 0.898777 999.998 0.997816 898.876 -0.00144516 0.0948558 9978.16 0 0 0.35 
0.00195312 0.232422 757.503 0.24201 0.757505 999.998 0.997997 757.745 -0.00135526 0.0958594 9979.97 0 0 0.35 
0.00195312 0.236328 462.601 0.536635 0.462601 999.999 0.998578 463.137 -0.00121683 0.0955765 9985.78 0 0 0.35 
0.00195312 0.240234 197.25 0.802008 0.19725 999.999 0.999076 198.052 -0.00105018 0.0941229 9990.76 0 0 0.35 
0.00195312 0.244141 86.8861 0.912526 0.0868862 999.999 0.999357 87.7987 -0.000875736 0.0927472 9993.57 0 0 0.35 
0.00195312 0.248047 47.9884 0.951542 0.0479884 1000 0.999506 48.94 -0.000731889 0.0916274 9995.06 0 0 0.35 
0.00195312 0.251953 31.2696 0.96835 0.0312696 1000 0.999607 32.238 -0.000674013 0.0907058 9996.07 0 0 0.282711 
0.00195312 0.255859 23.0355 0.976654 0.0230355 1000 0.999682 24.0122 -0.000762856 0.0901671 9996.82 0 0 0 
0.00195312 0.259766 17.849 0.981897 0.017849 1000 0.999742 18.8309 -0.00103177 0.090307 9997.42 0 0 0 
0.00195312 0.263672 13.72 0.986072 0.01372 1000 0.999789 14.7061 -0.0014535 0.0914317 9997.89 0 0 0 
0.00195312 0.267578 10.1336 0.989694 0.0101336 1000 0.999826 11.1233 -0.00194944 0.0937333 9998.26 0 0 0 
0.00195312 0.271484 7.00589 0.992848 0.00700589 1000 0.999852 7.99873 -0.0024147 0.0972202 9998.52 0 0 0 
0.00195312 0.275391 4.38913 0.995482 0.00438913 1000 0.999871 5.38461 -0.00274005 0.10167 9998.71 0 0 0 
0.00195312 0.279297 2.38108 0.997502 0.00238108 1000 0.999883 3.37858 -0.00282164 0.106658 9998.83 0 0 0 
0.00195312 0.283203 1.05771 0.998832 0.00105771 1000 0.999889 2.05654 -0.00257786 0.111574 9998.89 0 0 0 
0.00195312 0.287109 0.393529 0.9995 0.000393529 1000 0.999894 1.39303 -0.00200736 0.115713 9998.94 0 0 0 
0.00195312 0.291016 0.195452 0.999701 0.000195452 1000 0.999896 1.19515 -0.00120692 0.118499 9998.96 0 -9.93625e-07 0 
0.00195312 0.294922 0.140189 0.999759 0.000140189 1000 0.999899 1.13995 -0.000312118 0.119602 9998.99 0 0 0 
0.00195312 0.298828 0.106146 0.999795 0.000106146 1000 0.999901 1.10594 0.000538441 0.118979 9999.01 0 0 0 
0.00195312 0.302734 0.0807156 0.999823 8.07156e-05 1000 0.999903 1.08054 0.00121236 0.116841 9999.03 0 0 0 
0.00195312 0.306641 0.0594634 0.999846 5.94635e-05 1000 0.999905 1.05931 0.00165696 0.113613 9999.05 0 0 0 
0.00195312 0.310547 0.0412368 0.999866 4.12368e-05 1000 0.999907 1.0411 0.00189305 0.109744 9999.07 0 0 0 
0.00195312 0.314453 0.0262033 0.999883 2.62034e-05 1000 0.999909 1.02609 0.00198019 0.105589 9999.09 0 0 0 
0.00195312 0.318359 0.0148494 0.999896 1.48494e-05 1000 0.99991 1.01475 0.00197204 0.101386 9999.1 0 0 0 
0.00195312 0.322266 0.00742936 0.999904 7.42936e-06 1000 0.999912 1.00733 0.00190373 0.0972856 9999.12 0 0 0 
0.00195312 0.326172 0.00363585 0.999909 3.63585e-06 1000 0.999913 1.00355 0.00179889 0.0933841 9999.13 0 0 0 
0.00195312 0.330078 0.00240072 0.999912 2.40072e-06 1000 0.999914 1.00231 0.00167673 0.0897343 9999.14 0 0 0 
0.00195312 0.333984 0.0020219 0.999913 2.0219e-06 1000 0.999915 1.00194 0.00155445 0.0863526 9999.15 0 0 0 
0.00195312 0.337891 0.00178379 0.999914 1.78379e-06 1000 0.999916 1.0017 0.0014464 0.0832241 9999.16 0 0 0 
0.00195312 0.341797 0.00159956 0.999915 1.59956e-06 1000 0.999917 1.00151 0.00136224 0.0803096 9999.17 0 0 0 
0.00195312 0.345703 0.0014437 0.999916 1.4437e-06 1000 0.999918 1.00136 0.00130534 0.0775569 9999.18 0 0 0 
0.00195312 0.349609 0.00131208 0.999917 1.31208e-06 1000 0.999918 1.00123 0.00127294 0.0749137 9999.18 0 0 0 
0.00195312 0.353516 0.00120619 0.999918 1.20619e-06 1000 0.999919 1.00112 0.00125786 0.0723377 9999.19 0 -0.000236877 0 
0.00195312 0.357422 0.00112654 0.999918 1.12654e-06 1000 0.999919 1.00104 0.00125136 0.0698029 9999.19 0 0 0 
0.00195312 0.361328 0.00107104 0.999918 1.07104e-06 1000 0.999919 1.00099 0.0012458 0.0672998 9999.19 0 0 0.00122815 
0.00195312 0.365234 0.00103576 0.999919 1.03576e-06 1000 0.99992 1.00095 0.0012362 0.0648313 9999.2 0 0 0.0052066 
0.00195312 0.369141 0.00101612 0.999919 1.01612e-06 1000 0.99992 1.00093 0.00122079 0.0624073 9999.2 0 -0.000807106 0.00120357 
0.00195312 0.373047 0.0010074 0.999919 1.0074e-06 1000 0.99992 1.00093 0.00120049 0.0600382 9999.2 0 0 -0.00277488 
0.00195312 0.376953 0.001005 0.999919 1.005e-06 1000 0.99992 1.00092 0.00117776 0.0577309 9999.2 0 0 0 
0.00195312 0.380859 0.00100408 0.999919 1.00408e-06 1000 0.99992 1.00092 0.00115549 0.0554871 9999.2 0 0 0 
0.00195312 0.384766 0.00100321 0.999919 1.00321e-06 1000 0.99992 1.00092 0.001136 0.0533026 9999.2 0 0 0 
0.00195312 0.388672 0.00100235 0.999918 1.00235e-06 1000 0.999919 1.00092 0.00112056 0.0511701 9999.19 0 -0.000720559 0 
0.00195312 0.392578 0.00100153 0.999918 1.00153e-06 1000 0.999919 1.00092 0.00110928 0.0490803 9999.19 0 0.000622509 0 
0.00195312 0.396484 0.00100081 0.999918 1.00081e-06 1000 0.999919 1.00092 0.0011014 0.0470248 9999.19 0 0 -0.000241215 
0.00195312 0.400391 0.00100024 0.999917 1.00024e-06 1000 0.999918 1.00092 0.00109572 0.0449974 9999.18 0 0 -0.000241215 
0.00195312 0.404297 0.000999845 0.999917 9.99845e-07 1000 0.999918 1.00092 0.00109094 0.0429942 9999.18 0 0 0 
0.00195312 0.408203 0.000999614 0.999916 9.99614e-07 1000 0.999917 1.00092 0.00108607 0.0410143 9999.17 0 0 0 
0.00195312 0.412109 0.000999525 0.999916 9.99525e-07 1000 0.999917 1.00092 0.0010805 0.0390582 9999.17 0 0 0 
0.00195312 0.416016 0.000999544 0.999915 9.99544e-07 1000 0.999916 1.00091 0.00107403 0.037127 9999.16 0 0 0 
0.00195312 0.419922 0.000999632 0.999914 9.99632e-07 1000 0.999915 1.00091 0.00106682 0.0352216 9999.15 0 0 0 
0.00195312 0.423828 0.00099975 0.999913 9.9975e-07 1000 0.999914 1.00091 0.00105925 0.0333423 9999.14 0 0 0 
0.00195312 0.427734 0.000999864 0.999912 9.99864e-07 1000 0.999913 1.00091 0.00105174 0.0314886 9999.13 0 0 -0.00102356 
0.00195312 0.431641 0.000999951 0.999912 9.99951e-07 1000 0.999913 1.00091 0.0010447 0.029659 9999.13 0 0 -0.00102356 
0.00195312 0.435547 0.001 0.99991 1e-06 1000 0.999911 1.00091 0.0010384 0.027852 9999.11 0 0 0 
0.00195312 0.439453 0.00100002 0.999909 1.00002e-06 1000 0.99991 1.00091 0.00103295 0.0260656 9999.1 0 0 0 
0.00195312 0.443359 0.00100001 0.999908 1.00001e-06 1000 0.999909 1.00091 0.0010283 0.0242977 9999.09 0 0 0 
0.00195312 0.447266 0.000999995 0.999907 9.99995e-07 1000 0.999908 1.00091 0.00102432 0.0225467 9999.08 0 0 0 
0.00195312 0.451172 0.000999986 0.999906 9.99986e-07 1000 0.999907 1.00091 0.00102081 0.0208108 9999.07 0 0 0 
0.00195312 0.455078 0.000999989 0.999904 9.99989e-07 1000 0.999905 1.0009 0.00101759 0.0190891 9999.05 0 0 0 
0.00195312 0.458984 0.001 0.999903 1e-06 1000 0.999904 1.0009 0.00101452 0.01738 9999.04 0 0 0 
0.00195312 0.462891 0.00100003 0.999901 1.00003e-06 1000 0.999902 1.0009 0.00101151 0.015684 9999.02 0 0 0 
0.00195312 0.466797 0.00100005 0.9999 1.00005e-06 1000 0.999901 1.0009 0.00100857 0.0139983 9999.01 0 0 0 
0.00195312 0.470703 0.00100005 0.999898 1.00005e-06 1000 0.999899 1.0009 0.00100573 0.0123261 9998.99 0 0 0 
0.00195312 0.474609 0.00100003 0.999896 1.00003e-06 1000 0.999897 1.0009 0.00100311 0.0106595 9998.97 0 0 0 
0.00195312 0.478516 0.00099998 0.999894 9.99981e-07 1000 0.999895 1.00089 0.00100084 0.0090094 9998.95 0 0 0 
0.00195312 0.482422 0.0009999 0.999892 9.999e-07 1000 0.999893 1.00089 0.000999031 0.00735277 9998.93 0 0 -0.00257971 
0.00195312 0.486328 0.000999799 0.99989 9.99799e-07 1000 0.999891 1.00089 0.000997749 0.00572331 9998.91 0 0 -0.00257971 
0.00195312 0.490234 0.000999693 0.999888 9.99693e-07 1000 0.999889 1.00089 0.000996978 0.00405221 9998.89 0 0 0 
0.00195312 0.494141 0.000999606 0.999886 9.99607e-07 1000 0.999887 1.00089 0.000996621 0.00244251 9998.87 0 0 0 
0.00195312 0.498047 0.000999557 0.999883 9.99557e-07 1000 0.999884 1.00088 0.000996521 0.000655772 9998.84 0 0 0 
0.00585938 0.00195312 1000.1 9.43636e-07 0.999999 1000.1 1.1027 1000.1 -0.00208293 0.000469793 11027 0 0 0 
0.00585938 0.00585938 1000.1 9.53419e-07 0.999999 1000.1 1.09977 1000.1 -0.00207701 0.00189831 10997.7 0 0 0 
0.00585938 0.00976562 1000.1 9.85266e-07 0.999999 1000.1 1.09788 1000.1 -0.00206435 0.00313106 10978.8 0 0 0 
0.00585938 0.0136719 1000.09 1.01915e-06 0.999999 1000.1 1.09524 1000.09 -0.0020474 0.00442051 10952.4 0 0 0 
0.00585938 0.0175781 1000.09 1.03135e-06 0.999999 1000.09 1.09303 1000.09 -0.00203017 0.00564954 10930.3 0 0 0 
0.00585938 0.0214844 1000.09 1.02767e-06 0.999999 1000.09 1.09059 1000.09 -0.00201649 0.00689262 10905.9 0 0 0 
0.00585938 0.0253906 1000.09 1.02217e-06 0.999999 1000.09 1.08831 1000.09 -0.00200901 0.00811381 10883.1 0 0 0 
0.00585938 0.0292969 1000.09 1.01669e-06 0.999999 1000.09 1.08597 1000.09 -0.00200875 0.00934132 10859.7 0 0 0 
0.00585938 0.0332031 1000.08 1.01143e-06 0.999999 1000.08 1.08369 1000.08 -0.00201516 0.0105663 10836.9 0 0 0 
0.00585938 0.0371094 1000.08 1.00659e-06 0.999999 1000.08 1.08141 1000.08 -0.00202675 0.0118005 10814.1 0 0 0 
0.00585938 0.0410156 1000.08 1.00235e-06 0.999999 1000.08 1.07917 1000.08 -0.00204163 0.0130423 10791.7 0 0 0 
0.00585938 0.0449219 1000.08 9.98932e-07 0.999999 1000.08 1.07694 1000.08 -0.00205812 0.0142959 10769.4 0 0 0 
0.00585938 0.0488281 1000.07 9.9647e-07 0.999999 1000.07 1.07474 1000.07 -0.00207505 0.0155605 10747.4 0 0 0 
0.00585938 0.0527344 1000.07 9.95035e-07 0.999999 1000.07 1.07255 1000.07 -0.0020919 0.0168374 10725.5 0 0 -0.000579822 
0.00585938 0.0566406 1000.07 9.94599e-07 0.999999 1000.07 1.07039 1000.07 -0.00210864 0.018126 10703.9 0 0 -0.000579822 
0.00585938 0.0605469 1000.07 9.95052e-07 0.999999 1000.07 1.06825 1000.07 -0.00212563 0.0194267 10682.5 0 0 0.00070895 
0.00585938 0.0644531 1000.07 9.96209e-07 0.999999 1000.07 1.06613 1000.07 -0.00214337 0.02074 10661.3 0 0 0.00070895 
0.00585938 0.0683594 1000.06 9.97818e-07 0.999999 1000.06 1.06404 1000.06 -0.0021623 0.0220664 10640.4 0 0 0 
0.00585938 0.0722656 1000.06 9.99593e-07 0.999999 1000.06 1.06196 1000.06 -0.0021827 0.0234069 10619.6 0 0 0 
0.00585938 0.0761719 1000.06 1.00125e-06 0.999999 1000.06 1.05991 1000.06 -0.00220466 0.0247626 10599.1 0 0 0 
0.00585938 0.0800781 1000.06 1.00257e-06 0.999999 1000.06 1.05788 1000.06 -0.00222804 0.0261345 10578.8 0 0 -0.000325583 
0.00585938 0.0839844 1000.05 1.00345e-06 0.999999 1000.06 1.05588 1000.05 -0.00225261 0.0275236 10558.8 0 0 -0.000325583 
0.00585938 0.0878906 1000.05 1.00395e-06 0.999999 1000.05 1.05389 1000.05 -0.00227808 0.0289305 10538.9 0 0 0 
0.00585938 0.0917969 1000.05 1.00424e-06 0.999999 1000.05 1.05192 1000.05 -0.00230421 0.0303561 10519.2 0 0 0 
0.00585938 0.0957031 1000.05 1.00468e-06 0.999999 1000.05 1.04998 1000.05 -0.00233089 0.0318007 10499.8 0 0 0 
0.00585938 0.0996094 1000.05 1.00707e-06 0.999999 1000.05 1.04805 1000.05 -0.00235821 0.0332649 10480.5 0 0.000830478 -0.00158918 
0.00585938 0.103516 1000.05 1.01524e-06 0.999999 1000.05 1.04615 1000.05 -0.00238648 0.0347492 10461.5 0 0 -0.00158918 
0.00585938 0.107422 1000.04 1.03158e-06 0.999999 1000.04 1.04426 1000.04 -0.00241624 0.0362547 10442.6 0 0 0 
0.00585938 0.111328 1000.04 1.05718e-06 0.999999 1000.04 1.04239 1000.04 -0.00244814 0.0377826 10423.9 0 0 0 
0.00585938 0.115234 1000.04 1.09304e-06 0.999999 1000.04 1.04054 1000.04 -0.00248286 0.0393345 10405.4 0 0 0 
0.00585938 0.119141 1000.04 1.14199e-06 0.999999 1000.04 1.0387 1000.04 -0.00252083 0.0409126 10387 0 0 0 
0.00585938 0.123047 1000.04 1.20929e-06 0.999999 1000.04 1.03689 1000.04 -0.00256213 0.0425189 10368.9 0 0 0 
0.00585938 0.126953 1000.03 1.29754e-06 0.999999 1000.04 1.03509 1000.03 -0.0026063 0.0441556 10350.9 0 0 0 
0.00585938 0.130859 1000.03 1.39504e-06 0.999999 1000.03 1.0333 1000.03 -0.00265229 0.0458244 10333 0 0 0 
0.00585938 0.134766 1000.03 1.48027e-06 0.999999 1000.03 1.03153 1000.03 -0.00269858 0.0475259 10315.3 0 0 0 
0.00585938 0.138672 1000.03 1.84134e-06 0.999998 1000.03 1.02978 1000.03 -0.00274346 0.04926 10297.8 0 0 0 
0.00585938 0.142578 1000.02 3.74133e-06 0.999996 1000.03 1.02804 1000.02 -0.00278542 0.0510251 10280.4 0 0 0 
0.00585938 0.146484 1000.02 8.33235e-06 0.999992 1000.03 1.02631 1000.02 -0.00282362 0.0528192 10263.1 0 0 0 
0.00585938 0.150391 1000.01 1.54338e-05 0.999985 1000.02 1.0246 1000.01 -0.00285829 0.0546397 10246 0 -0.00134893 0 
0.00585938 0.154297 1000 2.33946e-05 0.999977 1000.02 1.02291 1000 -0.00289074 0.0564847 10229.1 0 0 0 
0.00585938 0.158203 999.991 3.04787e-05 0.99997 1000.02 1.02122 999.991 -0.00292302 0.0583534 10212.2 0 0 0.000102252 
0.00585938 0.162109 999.984 3.60987e-05 0.999965 1000.02 1.01955 999.984 -0.00295718 0.0602462 10195.5 0 0 0.000102252 
0.00585938 0.166016 999.978 4.11119e-05 0.99996 1000.02 1.0179 999.978 -0.0029944 0.0621647 10179 0 0 0 
0.00585938 0.169922 999.969 4.76171e-05 0.999953 1000.02 1.01625 999.969 -0.00303432 0.0641102 10162.5 0 0 0 
0.00585938 0.173828 999.956 5.94892e-05 0.999941 1000.01 1.01462 999.956 -0.0030747 0.0660831 10146.2 0 0 0 
0.00585938 0.177734 999.93 8.41613e-05 0.999917 1000.01 1.013 999.93 -0.00311195 0.0680815 10130 0 0 0 
0.00585938 0.181641 999.812 0.000201228 0.999801 1000.01 1.01141 999.813 -0.00314288 0.0701014 10114.1 0 0 0 
0.00585938 0.185547 999.37 0.000645706 0.999361 1000.01 1.00982 999.371 -0.00316848 0.0721321 10098.2 0 0 0.000263903 
0.00585938 0.189453 998.445 0.00157651 0.998436 1000.01 1.00826 998.446 -0.00319721 0.0741586 10082.6 0 0.00106994 0.000263903 
0.00585938 0.193359 996.977 0.00305009 0.99697 1000.01 1.00673 996.98 -0.00324333 0.076171 10067.3 0 -0.000728372 0 
0.00585938 0.197266 994.99 0.00504138 0.994985 1000.01 1.00525 994.995 -0.00332111 0.0781694 10052.5 0 0 0 
0.00585938 0.201172 992.576 0.00745672 0.992572 1000 1.00384 992.583 -0.00343968 0.0801673 10038.4 0 0 0 
0.00585938 0.205078 989.875 0.0101534 0.989872 1000 1.00253 989.885 -0.00360039 0.0821883 10025.3 0 0 0 
0.00585938 0.208984 987 0.0130186 0.986999 1000 1.00133 987.013 -0.00379606 0.0842629 10013.3 0 0 0 
0.00585938 0.212891 983.839 0.0161654 0.983839 1000 1.00025 983.855 -0.00401014 0.0864153 10002.5 0 0 0 
0.00585938 0.216797 979.54 0.0204457 0.97954 999.999 0.999321 979.56 -0.00421429 0.0886526 9993.21 0 0 0 
0.00585938 0.220703 970.45 0.0295057 0.970452 999.999 0.998557 970.48 -0.00436615 0.0909236 9985.57 0 -1.54833e-05 0.349981 
0.00585938 0.224609 949.128 0.0507688 0.94913 999.998 0.998015 949.179 -0.00441561 0.0930792 9980.15 0 0 0.35 
0.00585938 0.228516 898.821 0.100956 0.898823 999.998 0.997814 898.922 -0.0043238 0.0948839 9978.14 0 0 0.35 
0.00585938 0.232422 757.645 0.241869 0.757646 999.998 0.997999 757.887 -0.00406513 0.0959261 9979.99 0 0 0.35 
0.00585938 0.236328 462.826 0.53641 0.462827 999.999 0.99858 463.363 -0.00365165 0.0956805 9985.8 0 0 0.35 
0.00585938 0.240234 197.383 0.801874 0.197384 999.999 0.999076 198.185 -0.00313656 0.0942533 9990.76 0 0 0.35 
0.00585938 0.244141 86.9377 0.912474 0.0869377 999.999 0.999356 87.8501 -0.00260111 0.0928714 9993.56 0 0 0.35 
0.00585938 0.248047 48.0089 0.951521 0.048009 1000 0.999506 48.9605 -0.00217346 0.0917322 9995.06 0 0 0.35 
0.00585938 0.251953 31.2729 0.968346 0.0312729 1000 0.999607 32.2412 -0.00200633 0.0907956 9996.07 0 0 0.287041 
0.00585938 0.255859 23.0333 0.976655 0.0230333 1000 0.999681 24.0099 -0.00227655 0.0902543 9996.81 0 0 0 
0.00585938 0.259766 17.8481 0.981898 0.0178481 1000 0.999741 18.83 -0.00308875 0.0904117 9997.41 0 0 0 
0.00585938 0.263672 13.7202 0.986071 0.0137202 1000 0.999788 14.7063 -0.00435612 0.091575 9997.88 0 0 0 
0.00585938 0.267578 10.1341 0.989692 0.0101341 1000 0.999825 11.1238 -0.00583333 0.0939147 9998.25 0 0 0 
0.00585938 0.271484 7.0064 0.992846 0.0070064 1000 0.999852 7.99924 -0.00720556 0.0974101 9998.52 0 0 0 
0.00585938 0.275391 4.38947 0.995481 0.00438947 1000 0.99987 5.38495 -0.00815698 0.101822 9998.7 0 0 0 
0.00585938 0.279297 2.38111 0.997501 0.00238111 1000 0.999882 3.37861 -0.00839435 0.106735 9998.82 0 0 0 
0.00585938 0.283203 1.0577 0.998832 0.0010577 1000 0.999889 2.05653 -0.00766935 0.11157 9998.89 0 0 0 
0.00585938 0.287109 0.393672 0.9995 0.000393672 1000 0.999893 1.39317 -0.00596699 0.115633 9998.93 0 0.000309114 0 
0.00585938 0.291016 0.195561 0.999701 0.000195561 1000 0.999896 1.19526 -0.00357771 0.118352 9998.96 0 -9.93625e-07 0 
0.00585938 0.294922 0.140271 0.999759 0.000140271 1000 0.999899 1.14003 -0.000910894 0.119396 9998.99 0 0 0 
0.00585938 0.298828 0.106173 0.999795 0.000106173 1000 0.999901 1.10597 0.00161101 0.118741 9999.01 0 0 0 
0.00585938 0.302734 0.08069 0.999823 8.069e-05 1000 0.999904 1.08051 0.00362175 0.116596 9999.04 0 0 0 
0.00585938 0.306641 0.0594192 0.999846 5.94192e-05 1000 0.999906 1.05927 0.00494415 0.113372 9999.06 0 0 0 
0.00585938 0.310547 0.0412116 0.999866 4.12116e-05 1000 0.999908 1.04108 0.00564091 0.109529 9999.08 0 0 0 
0.00585938 0.314453 0.0261992 0.999883 2.61992e-05 1000 0.999909 1.02608 0.00589981 0.105412 9999.09 0 0 0 
0.00585938 0.318359 0.0148543 0.999896 1.48543e-05 1000 0.999911 1.01475 0.00587824 0.101246 9999.11 0 0 5.35485e-05 
0.00585938 0.322266 0.00743438 0.999905 7.43438e-06 1000 0.999912 1.00734 0.0056775 0.097177 9999.12 0 0 5.35485e-05 
0.00585938 0.326172 0.00363575 0.99991 3.63575e-06 1000 0.999913 1.00355 0.00536751 0.0933002 9999.13 0 0 0 
0.00585938 0.330078 0.00239696 0.999912 2.39696e-06 1000 0.999914 1.00231 0.00500569 0.089668 9999.14 0 0 0 
0.00585938 0.333984 0.0020197 0.999913 2.0197e-06 1000 0.999915 1.00193 0.00464302 0.0862974 9999.15 0 0 0 
0.00585938 0.337891 0.001783 0.999915 1.783e-06 1000 0.999916 1.0017 0.00432204 0.0831746 9999.16 0 0 0 
0.00585938 0.341797 0.00159939 0.999916 1.59939e-06 1000 0.999917 1.00151 0.00407141 0.0802627 9999.17 0 0 0 
0.00585938 0.345703 0.00144377 0.999916 1.44377e-06 1000 0.999918 1.00136 0.00390152 0.0775114 9999.18 0 0 0 
0.00585938 0.349609 0.00131217 0.999917 1.31217e-06 1000 0.999918 1.00123 0.0038043 0.0748697 9999.18 0 0 0 
0.00585938 0.353516 0.00120634 0.999918 1.20634e-06 1000 0.999919 1.00112 0.00375857 0.0722963 9999.19 0 -0.000236877 0 
0.00585938 0.357422 0.00112666 0.999918 1.12666e-06 1000 0.999919 1.00104 0.00373852 0.0697654 9999.19 0 0 0 
0.00585938 0.361328 0.00107098 0.999919 1.07098e-06 1000 0.99992 1.00099 0.00372145 0.0672671 9999.2 0 0 0.00122815 
0.00585938 0.365234 0.00103558 0.999919 1.03558e-06 1000 0.99992 1.00095 0.00369267 0.0648039 9999.2 0 0 0.00468269 
0.00585938 0.369141 0.00101599 0.999919 1.01599e-06 1000 0.99992 1.00093 0.0036469 0.0623847 9999.2 0 0 0.00136869 
0.00585938 0.373047 0.0010074 0.999919 1.0074e-06 1000 0.99992 1.00093 0.00358676 0.0600194 9999.2 0 0 -0.00208586 
0.00585938 0.376953 0.00100502 0.999919 1.00502e-06 1000 0.99992 1.00092 0.00351948 0.0577148 9999.2 0 0 0 
0.00585938 0.380859 0.00100409 0.999919 1.00409e-06 1000 0.99992 1.00092 0.00345349 0.0554722 9999.2 0 0 0 
0.00585938 0.384766 0.00100321 0.999919 1.00321e-06 1000 0.99992 1.00092 0.00339557 0.053288 9999.2 0 0 0 
0.00585938 0.388672 0.00100235 0.999919 1.00235e-06 1000 0.99992 1.00092 0.00334947 0.0511551 9999.2 0 0 0 
0.00585938 0.392578 0.00100152 0.999918 1.00152e-06 1000 0.999919 1.00092 0.00331562 0.0490649 9999.19 0 0 0 
0.00585938 0.396484 0.00100081 0.999918 1.00081e-06 1000 0.999919 1.00092 0.0032919 0.0470092 9999.19 0 0 -0.000241215 
0.00585938 0.400391 0.00100024 0.999917 1.00024e-06 1000 0.999918 1.00092 0.00327478 0.044982 9999.18 0 0 -0.000241215 
0.00585938 0.404297 0.000999849 0.999917 9.99849e-07 1000 0.999918 1.00092 0.00326053 0.0429795 9999.18 0 0 0 
0.00585938 0.408203 0.000999618 0.999916 9.99618e-07 1000 0.999917 1.00092 0.0032461 0.0410006 9999.17 0 0 0 
0.00585938 0.412109 0.000999528 0.999916 9.99528e-07 1000 0.999917 1.00092 0.00322958 0.0390455 9999.17 0 0 0 
0.00585938 0.416016 0.000999546 0.999915 9.99546e-07 1000 0.999916 1.00091 0.00321036 0.0371153 9999.16 0 0 0 
0.00585938 0.419922 0.000999633 0.999914 9.99633e-07 1000 0.999915 1.00091 0.00318888 0.0352108 9999.15 0 0 0 
0.00585938 0.423828 0.000999751 0.999913 9.99751e-07 1000 0.999914 1.00091 0.00316626 0.0333322 9999.14 0 0 0 
0.00585938 0.427734 0.000999865 0.999913 9.99865e-07 1000 0.999914 1.00091 0.00314384 0.0314789 9999.14 0 0 -0.000767673 
0.00585938 0.431641 0.000999952 0.999912 9.99952e-07 1000 0.999913 1.00091 0.00312285 0.0296499 9999.13 0 0 -0.000767673 
0.00585938 0.435547 0.001 0.999911 1e-06 1000 0.999912 1.00091 0.00310409 0.0278433 9999.12 0 0 0 
0.00585938 0.439453 0.00100002 0.99991 1.00002e-06 1000 0.999911 1.00091 0.00308785 0.0260573 9999.11 0 0.000791414 0 
0.00585938 0.443359 0.00100001 0.999908 1.00001e-06 1000 0.999909 1.00091 0.00307399 0.0242898 9999.09 0 0 0 
0.00585938 0.447266 0.000999996 0.999907 9.99997e-07 1000 0.999908 1.00091 0.00306209 0.0225393 9999.08 0 0 0 
0.00585938 0.451172 0.000999987 0.999906 9.99987e-07 1000 0.999907 1.00091 0.0030516 0.0208039 9999.07 0 0 0 
0.00585938 0.455078 0.00099999 0.999904 9.9999e-07 1000 0.999905 1.0009 0.00304199 0.0190828 9999.05 0 0 0 
0.00585938 0.458984 0.00100001 0.999903 1.00001e-06 1000 0.999904 1.0009 0.00303287 0.0173743 9999.04 0 0 0 
0.00585938 0.462891 0.00100003 0.999901 1.00003e-06 1000 0.999902 1.0009 0.00302399 0.015679 9999.02 0 -0.000193641 0 
0.00585938 0.466797 0.00100005 0.9999 1.00005e-06 1000 0.999901 1.0009 0.00301533 0.0139939 9999.01 0 0 0 
0.00585938 0.470703 0.00100005 0.999898 1.00005e-06 1000 0.999899 1.0009 0.003007 0.0123223 9998.99 0 0 0 
0.00585938 0.474609 0.00100003 0.999896 1.00003e-06 1000 0.999897 1.0009 0.00299931 0.0106563 9998.97 0 0 0 
0.00585938 0.478516 0.000999982 0.999894 9.99982e-07 1000 0.999895 1.00089 0.00299262 0.00900671 9998.95 0 0 0 
0.00585938 0.482422 0.000999901 0.999892 9.99901e-07 1000 0.999893 1.00089 0.00298727 0.00735055 9998.93 0 0 -0.00263058 
0.00585938 0.486328 0.0009998 0.99989 9.998e-07 1000 0.999891 1.00089 0.00298345 0.00572157 9998.91 0 0.00065381 -0.00263058 
0.00585938 0.490234 0.000999695 0.999888 9.99695e-07 1000 0.999889 1.00089 0.00298114 0.00405095 9998.89 0 0 0 
0.00585938 0.494141 0.000999608 0.999886 9.99608e-07 1000 0.999887 1.00089 0.00298005 0.00244174 9998.87 0 0 0 
0.00585938 0.498047 0.000999558 0.999883 9.99558e-07 1000 0.999884 1.00088 0.00297974 0.000655519 9998.84 0 0 0 
0.00976562 0.00195312 1000.1 9.43922e-07 0.999999 1000.1 1.10272 1000.1 -0.00346439 0.000465816 11027.2 0 0 0 
0.00976562 0.00585938 1000.1 9.53708e-07 0.999999 1000.1 1.09979 1000.1 -0.00345509 0.00188687 10997.9 0 0 0 
0.00976562 0.00976562 1000.1 9.85567e-07 0.999999 1000.1 1.0979 1000.1 -0.00343532 0.00311336 10979 0 0 0 
0.00976562 0.0136719 1000.09 1.01946e-06 0.999999 1000.1 1.09525 1000.09 -0.00340887 0.00439857 10952.5 0 0 0 
0.00976562 0.0175781 1000.09 1.03166e-06 0.999999 1000.09 1.09305 1000.09 -0.00338201 0.0056257 10930.5 0 0 0 
0.00976562 0.0214844 1000.09 1.02798e-06 0.999999 1000.09 1.0906 1000.09 -0.00336067 0.00686902 10906 0 0 0 
0.00976562 0.0253906 1000.09 1.02249e-06 0.999999 1000.09 1.08833 1000.09 -0.00334904 0.0080919 10883.3 0 0 0 
0.00976562 0.0292969 1000.09 1.017e-06 0.999999 1000.09 1.08598 1000.09 -0.00334873 0.0093217 10859.8 0 0 0 
0.00976562 0.0332031 1000.08 1.01174e-06 0.999999 1000.08 1.08371 1000.08 -0.003359 0.0105487 10837.1 0 0 0 
0.00976562 0.0371094 1000.08 1.00689e-06 0.999999 1000.08 1.08143 1000.08 -0.00337756 0.0117843 10814.3 0 0 0 
0.00976562 0.0410156 1000.08 1.00265e-06 0.999999 1000.08 1.07919 1000.08 -0.00340154 0.0130263 10791.9 0 0 0 