TITLE=FvSolution
VARIABLES=X Y RHO1Z1 RHO2Z2 Z1 RHO1 RHO2 RHO U V PRE theta lambdaX lambdaY 
ZONE T=TA, I=128, J=128, DATAPACKING = POINT
0.00195312 0.00195312 1000.19 8.32276e-07 0.999999 1000.19 1.18888 1000.19 0.000758904 -0.000894727 11888.8 0 0 0 
0.00195312 0.00585938 1000.19 8.67909e-07 0.999999 1000.19 1.18574 1000.19 0.000758922 -0.00219944 11857.4 0 0 0 
0.00195312 0.00976562 1000.18 9.28469e-07 0.999999 1000.18 1.18398 1000.18 0.000759124 -0.00368008 11839.8 0 0 0 
0.00195312 0.0136719 1000.18 9.94696e-07 0.999999 1000.18 1.18127 1000.18 0.000759713 -0.0050883 11812.7 0 0 0 
0.00195312 0.0175781 1000.18 1.04954e-06 0.999999 1000.18 1.17898 1000.18 0.000760874 -0.00655854 11789.8 0 0 0 
0.00195312 0.0214844 1000.18 1.08392e-06 0.999999 1000.18 1.17636 1000.18 0.000762725 -0.00800638 11763.6 0 0 0 
0.00195312 0.0253906 1000.17 1.09662e-06 0.999999 1000.17 1.17389 1000.17 0.000765306 -0.00947663 11738.9 0 0 0 
0.00195312 0.0292969 1000.17 1.09238e-06 0.999999 1000.17 1.17131 1000.17 0.000768578 -0.0109437 11713.1 0 0 0 
0.00195312 0.0332031 1000.17 1.07881e-06 0.999999 1000.17 1.16877 1000.17 0.000772439 -0.0124237 11687.7 0 0 0 
0.00195312 0.0371094 1000.17 1.06302e-06 0.999999 1000.17 1.16619 1000.17 0.00077675 -0.0139089 11661.9 0 0 0 
0.00195312 0.0410156 1000.16 1.04915e-06 0.999999 1000.16 1.16361 1000.16 0.000781366 -0.0154051 11636.1 0 0 0 
0.00195312 0.0449219 1000.16 1.03709e-06 0.999999 1000.16 1.16101 1000.16 0.000786168 -0.0169097 11610.1 0 0 0 
0.00195312 0.0488281 1000.16 1.02332e-06 0.999999 1000.16 1.1584 1000.16 0.00079111 -0.0184249 11584 0 0 0 
0.00195312 0.0527344 1000.15 1.00345e-06 0.999999 1000.16 1.15577 1000.15 0.000796233 -0.0199499 11557.7 0 0 0 
0.00195312 0.0566406 1000.15 9.7591e-07 0.999999 1000.15 1.15314 1000.15 0.000801668 -0.021486 11531.4 0 0 0 
0.00195312 0.0605469 1000.15 9.45189e-07 0.999999 1000.15 1.15049 1000.15 0.000807585 -0.0230334 11504.9 0 0 0 
0.00195312 0.0644531 1000.15 9.22606e-07 0.999999 1000.15 1.14782 1000.15 0.000814155 -0.0245936 11478.2 0 0 0 
0.00195312 0.0683594 1000.14 9.23341e-07 0.999999 1000.15 1.14515 1000.14 0.00082153 -0.026168 11451.5 0 0 0 
0.00195312 0.0722656 1000.14 9.59815e-07 0.999999 1000.14 1.14246 1000.14 0.000829858 -0.0277583 11424.6 0 0 0 
0.00195312 0.0761719 1000.14 1.03366e-06 0.999999 1000.14 1.13977 1000.14 0.000839219 -0.0293665 11397.7 0 0 0 
0.00195312 0.0800781 1000.14 1.12996e-06 0.999999 1000.14 1.13705 1000.14 0.000849412 -0.0309946 11370.5 0 0 0 
0.00195312 0.0839844 1000.13 1.21713e-06 0.999999 1000.13 1.13433 1000.13 0.000859694 -0.0326436 11343.3 0 0 0 
0.00195312 0.0878906 1000.13 1.25338e-06 0.999999 1000.13 1.1316 1000.13 0.000868825 -0.0343125 11316 0 0 0 
0.00195312 0.0917969 1000.13 1.199e-06 0.999999 1000.13 1.12885 1000.13 0.000875759 -0.0359978 11288.5 0 0 0 
0.00195312 0.0957031 1000.13 1.03247e-06 0.999999 1000.13 1.1261 1000.13 0.000880805 -0.0376952 11261 0 0 0 
0.00195312 0.0996094 1000.12 7.68658e-07 0.999999 1000.12 1.12333 1000.12 0.000886308 -0.0394031 11233.3 0 0 0 
0.00195312 0.103516 1000.12 4.75061e-07 1 1000.12 1.12055 1000.12 0.000895785 -0.0411256 11205.5 0 0 0 
0.00195312 0.107422 1000.12 2.74996e-07 1 1000.12 1.11776 1000.12 0.000911544 -0.0428737 11177.6 0 0 0 
0.00195312 0.111328 1000.11 3.21721e-07 1 1000.11 1.11496 1000.11 0.000932613 -0.0446589 11149.6 0 0 0 
0.00195312 0.115234 1000.11 7.34058e-07 0.999999 1000.11 1.11214 1000.11 0.000955297 -0.0464894 11121.4 0 0 0 
0.00195312 0.119141 1000.11 1.50964e-06 0.999999 1000.11 1.10933 1000.11 0.000976572 -0.0483632 11093.3 0 0 0 
0.00195312 0.123047 1000.1 2.46362e-06 0.999998 1000.11 1.10648 1000.1 0.000997121 -0.0502806 11064.8 0 0 0 
0.00195312 0.126953 1000.1 3.2509e-06 0.999997 1000.1 1.10367 1000.1 0.00101981 -0.0522375 11036.7 0 0 0 
0.00195312 0.130859 1000.1 3.49486e-06 0.999997 1000.1 1.10078 1000.1 0.00104353 -0.0542476 11007.8 0 0 0 
0.00195312 0.134766 1000.1 2.9805e-06 0.999997 1000.1 1.09799 1000.1 0.00105901 -0.0562894 10979.9 0 0 0 
0.00195312 0.138672 1000.09 1.82241e-06 0.999998 1000.1 1.09503 1000.09 0.00105457 -0.0583653 10950.3 0 0 0 
0.00195312 0.142578 1000.09 5.36289e-07 1 1000.09 1.09272 1000.09 0.00103118 -0.0604098 10927.2 0 0 0 
0.00195312 0.146484 1000.08 2.65339e-08 1 1000.08 1.08387 1000.08 0.0010127 -0.0625679 10838.7 1 0 0 
0.00195312 0.150391 1000.08 1.55896e-06 0.999999 1000.09 1.08597 1000.08 0.00102208 -0.0643942 10859.7 0 0 0 
0.00195312 0.154297 1000.08 7.8556e-06 0.999993 1000.08 1.0835 1000.08 0.00102621 -0.0663593 10835 0 0 0 
0.00195312 0.158203 1000.06 1.91722e-05 0.999982 1000.08 1.08056 1000.06 0.00101473 -0.068338 10805.6 0 0 0 
0.00195312 0.162109 1000.05 3.34425e-05 0.999969 1000.08 1.07762 1000.05 0.00100428 -0.0703031 10776.2 0 0 0 
0.00195312 0.166016 1000.03 4.68077e-05 0.999956 1000.07 1.07464 1000.03 0.00101537 -0.072263 10746.4 0 0 0 
0.00195312 0.169922 1000.02 5.486e-05 0.999949 1000.07 1.07167 1000.02 0.00105353 -0.0742747 10716.7 0 0 0 
0.00195312 0.173828 1000.02 5.4742e-05 0.999949 1000.07 1.06869 1000.02 0.00110812 -0.0763802 10686.9 0 0 0 
0.00195312 0.177734 1000.02 4.78444e-05 0.999955 1000.07 1.0657 1000.02 0.00116419 -0.0785991 10657 0 0 0 
0.00195312 0.181641 1000.02 4.25651e-05 0.99996 1000.06 1.0627 1000.02 0.00121315 -0.0809234 10627 0 0 0 
0.00195312 0.185547 1000.01 5.65844e-05 0.999947 1000.06 1.0597 1000.01 0.00125461 -0.0833377 10597 0 0 0 
0.00195312 0.189453 999.945 0.000118505 0.999888 1000.06 1.05669 999.945 0.00129139 -0.0858284 10566.9 0 0 0 
0.00195312 0.193359 999.798 0.000269406 0.999744 1000.05 1.05368 999.798 0.00132431 -0.0883855 10536.8 0 0 0 
0.00195312 0.197266 999.512 0.000565742 0.999462 1000.05 1.05066 999.513 0.00135117 -0.0909957 10506.6 0 0 0 
0.00195312 0.201172 999.011 0.00108611 0.998963 1000.05 1.04763 999.012 0.00136931 -0.093638 10476.3 0 0 0 
0.00195312 0.205078 998.181 0.00194617 0.998137 1000.04 1.04459 998.183 0.00137869 -0.0962855 10445.9 0 0 0 
0.00195312 0.208984 996.845 0.00332921 0.996804 1000.04 1.04153 996.848 0.00138241 -0.09891 10415.3 0 0 0 
0.00195312 0.212891 994.698 0.00554538 0.99466 1000.04 1.03845 994.704 0.0013847 -0.101483 10384.5 0 0 0 
0.00195312 0.216797 991.202 0.00914512 0.991167 1000.04 1.03532 991.211 0.00138793 -0.103971 10353.2 0 0 0 
0.00195312 0.220703 985.363 0.01514 0.985331 1000.03 1.03214 985.378 0.00139082 -0.106321 10321.4 0 0 0 
0.00195312 0.224609 975.291 0.0254512 0.975263 1000.03 1.02886 975.316 0.00138912 -0.108433 10288.6 0 0 0 
0.00195312 0.228516 957.234 0.04388 0.957209 1000.03 1.02546 957.278 0.00137905 -0.11013 10254.6 0 0 0 
0.00195312 0.232422 923.268 0.078431 0.923248 1000.02 1.02188 923.347 0.00136131 -0.111121 10218.8 0 0 0 
0.00195312 0.236328 856.899 0.145705 0.856884 1000.02 1.01809 857.045 0.00134136 -0.110885 10180.9 0 0 0 
0.00195312 0.240234 742.807 0.260817 0.742796 1000.01 1.01405 743.068 0.00133205 -0.108832 10140.5 0 0 0 
0.00195312 0.244141 588.785 0.415355 0.588779 1000.01 1.01005 589.201 0.00134721 -0.105027 10100.5 0 0 0 
0.00195312 0.248047 419.63 0.584135 0.419628 1000.01 1.00648 420.214 0.00139719 -0.100402 10064.8 0 0 0 
0.00195312 0.251953 264.376 0.738418 0.264375 1000 1.0038 265.115 0.00148111 -0.0963676 10038 0 0 0 
0.00195312 0.255859 148.169 0.853629 0.148168 1000 1.00211 149.022 0.00158425 -0.0938525 10021.1 0 0 0 
0.00195312 0.259766 79.8342 0.921238 0.0798341 1000 1.00116 80.7554 0.00168208 -0.0927478 10011.6 0 0 0 
0.00195312 0.263672 44.7195 0.955888 0.0447195 1000 1.00064 45.6754 0.00174763 -0.0927452 10006.4 0 0 0 
0.00195312 0.267578 26.0396 0.97428 0.0260396 1000 1.00033 27.0139 0.00175745 -0.093442 10003.3 0 0 0 
0.00195312 0.271484 15.5944 0.984545 0.0155944 1000 1.00014 16.5789 0.0016897 -0.0944967 10001.4 0 0 0 
0.00195312 0.275391 9.51615 0.990509 0.00951615 1000 1.00003 10.5067 0.00153116 -0.095615 10000.3 0 0 0 
0.00195312 0.279297 5.85669 0.994094 0.00585669 1000 0.999951 6.85079 0.00128983 -0.0965305 9999.51 0 0 0 
0.00195312 0.283203 3.59149 0.99631 0.00359149 1000 0.999901 4.5878 0.000997872 -0.0970414 9999.01 0 0 0 
0.00195312 0.287109 2.16343 0.997704 0.00216343 1000 0.999868 3.16114 0.000701746 -0.0970513 9998.68 0 0 0 
0.00195312 0.291016 1.25959 0.998585 0.00125959 1000 0.999844 2.25817 0.000447649 -0.0965696 9998.44 0 0 0 
0.00195312 0.294922 0.696633 0.99913 0.000696633 1000 0.999827 1.69576 0.000264566 -0.0956939 9998.27 0 0 0 
0.00195312 0.298828 0.3606 0.999453 0.0003606 1000 0.999813 1.36005 0.000152821 -0.0945614 9998.13 0 0 0 
0.00195312 0.302734 0.175402 0.999627 0.000175402 1000 0.999802 1.17503 8.80364e-05 -0.0932862 9998.02 0 0 0 
0.00195312 0.306641 0.0870161 0.999705 8.70162e-05 1000 0.999792 1.08672 3.51991e-05 -0.0919231 9997.92 0 0 0 
0.00195312 0.310547 0.0559239 0.999727 5.59239e-05 1000 0.999783 1.05565 -3.65107e-05 -0.0904613 9997.83 0 0 0 
0.00195312 0.314453 0.0536219 0.99972 5.36219e-05 1000 0.999774 1.05334 -0.000141487 -0.0888452 9997.74 0 0 0 
0.00195312 0.318359 0.0608387 0.999704 6.08387e-05 1000 0.999764 1.06054 -0.000274875 -0.0870109 9997.64 0 0 0 
0.00195312 0.322266 0.0661833 0.999689 6.61833e-05 1000 0.999755 1.06587 -0.000421015 -0.0849107 9997.55 0 0 0 
0.00195312 0.326172 0.0646448 0.999681 6.46448e-05 1000 0.999746 1.06433 -0.000552349 -0.0825465 9997.46 0 0 0 
0.00195312 0.330078 0.0558378 0.999681 5.58378e-05 1000 0.999737 1.05552 -0.000633579 -0.0799771 9997.37 0 0 0 
0.00195312 0.333984 0.0421639 0.999685 4.21639e-05 1000 0.999728 1.04185 -0.000638874 -0.0773409 9997.28 0 0 0 
0.00195312 0.337891 0.0271356 0.999692 2.71356e-05 1000 0.999719 1.02683 -0.000571889 -0.0747755 9997.19 0 0 0 
0.00195312 0.341797 0.0140499 0.999696 1.40499e-05 1000 0.99971 1.01375 -0.000467924 -0.0724236 9997.1 0 0 0 
0.00195312 0.345703 0.00508635 0.999697 5.08635e-06 1000 0.999702 1.00478 -0.000374867 -0.0702784 9997.02 0 0 0 
0.00195312 0.349609 0.000811082 0.999693 8.11083e-07 1000 0.999694 1.0005 -0.000324379 -0.068438 9996.94 1 0 0 
0.00195312 0.353516 6.07442e-07 0.999695 6.07408e-10 1000.06 0.999695 0.999695 -0.00031251 -0.0667714 9996.95 1 0 0 
0.00195312 0.357422 0.000273203 0.999676 2.73203e-07 1000 0.999676 0.999949 -0.00033004 -0.06449 9996.76 0 0 0 
0.00195312 0.361328 0.00107659 0.999668 1.07659e-06 1000 0.999669 1.00074 -0.000392341 -0.0625301 9996.69 0 0 0 
0.00195312 0.365234 0.00195403 0.999659 1.95403e-06 1000 0.999661 1.00161 -0.000495739 -0.0603702 9996.61 0 0 0 
0.00195312 0.369141 0.00260593 0.999651 2.60593e-06 1000 0.999653 1.00226 -0.000601061 -0.058078 9996.53 0 0 0 
0.00195312 0.373047 0.00289853 0.999643 2.89853e-06 1000 0.999646 1.00254 -0.000663162 -0.0555909 9996.46 0 0 0 
0.00195312 0.376953 0.00282838 0.999635 2.82839e-06 1000 0.999638 1.00246 -0.000661305 -0.0530817 9996.38 0 0 0 
0.00195312 0.380859 0.00247037 0.999628 2.47037e-06 1000 0.999631 1.0021 -0.000608649 -0.0506343 9996.31 0 0 0 
0.00195312 0.384766 0.00193489 0.999621 1.93489e-06 1000 0.999623 1.00156 -0.000536705 -0.0483397 9996.23 0 0 0 
0.00195312 0.388672 0.00134256 0.999615 1.34256e-06 1000 0.999616 1.00096 -0.000473981 -0.0461944 9996.16 0 0 0 
0.00195312 0.392578 0.000808826 0.999608 8.08827e-07 1000 0.999609 1.00042 -0.000434213 -0.0441708 9996.09 0 0 0 
0.00195312 0.396484 0.00042824 0.999602 4.28241e-07 1000 0.999602 1.00003 -0.000416161 -0.042218 9996.02 0 0 0 
0.00195312 0.400391 0.000256185 0.999596 2.56185e-07 1000 0.999596 0.999852 -0.000410986 -0.0403035 9995.96 0 0 0 
0.00195312 0.404297 0.00029541 0.999589 2.9541e-07 1000 0.999589 0.999884 -0.000410251 -0.0384086 9995.89 0 0 0 
0.00195312 0.408203 0.000496728 0.999582 4.96729e-07 1000 0.999583 1.00008 -0.00040951 -0.0365304 9995.83 0 0 0 
0.00195312 0.412109 0.000776763 0.999576 7.76764e-07 1000 0.999577 1.00035 -0.000407473 -0.0346695 9995.77 0 0 0 
0.00195312 0.416016 0.00104631 0.99957 1.04631e-06 1000 0.999571 1.00062 -0.000403645 -0.032829 9995.71 0 0 0 
0.00195312 0.419922 0.00123751 0.999564 1.23751e-06 1000 0.999565 1.0008 -0.000397081 -0.0310129 9995.65 0 0 0 
0.00195312 0.423828 0.00131967 0.999558 1.31967e-06 1000 0.999559 1.00088 -0.000386819 -0.0292274 9995.59 0 0 0 
0.00195312 0.427734 0.0012997 0.999553 1.2997e-06 1000 0.999554 1.00085 -0.000372917 -0.0274797 9995.54 0 0 0 
0.00195312 0.431641 0.00121067 0.999547 1.21067e-06 1000 0.999549 1.00076 -0.000356859 -0.0257753 9995.49 0 0 0 
0.00195312 0.435547 0.00109512 0.999542 1.09512e-06 1000 0.999543 1.00064 -0.000340973 -0.0241158 9995.43 0 0 0 
0.00195312 0.439453 0.000990402 0.999538 9.90402e-07 1000 0.999539 1.00053 -0.000327362 -0.0224981 9995.39 0 0 0 
0.00195312 0.443359 0.000919898 0.999533 9.19898e-07 1000 0.999534 1.00045 -0.000317068 -0.0209157 9995.34 0 0 0 
0.00195312 0.447266 0.000890988 0.999528 8.90988e-07 1000 0.999529 1.00042 -0.000309891 -0.0193613 9995.29 0 0 0 
0.00195312 0.451172 0.000898084 0.999524 8.98085e-07 999.999 0.999525 1.00042 -0.000304771 -0.0178294 9995.25 0 0 0 
0.00195312 0.455078 0.000928178 0.999519 9.28178e-07 1000 0.99952 1.00045 -0.000300416 -0.0163158 9995.2 0 0 0 
0.00195312 0.458984 0.000966541 0.999515 9.66542e-07 1000 0.999516 1.00048 -0.00029583 -0.0148205 9995.16 0 0 0 
0.00195312 0.462891 0.00100104 0.999511 1.00104e-06 1000 0.999512 1.00051 -0.00029057 -0.0133418 9995.12 0 0 0 
0.00195312 0.466797 0.00102438 0.999507 1.02438e-06 999.999 0.999508 1.00053 -0.000284734 -0.0118841 9995.08 0 0 0 
0.00195312 0.470703 0.00103439 0.999504 1.03439e-06 999.999 0.999505 1.00054 -0.000278783 -0.0104409 9995.05 0 0 0 
0.00195312 0.474609 0.00103287 0.9995 1.03287e-06 1000 0.999501 1.00053 -0.000273308 -0.00902223 9995.01 0 0 0 
0.00195312 0.478516 0.00102384 0.999497 1.02384e-06 999.999 0.999498 1.00052 -0.000268821 -0.00760734 9994.98 0 0 0 
0.00195312 0.482422 0.00101176 0.999494 1.01176e-06 1000 0.999495 1.00051 -0.000265613 -0.00622655 9994.95 0 0 0 
0.00195312 0.486328 0.00100027 0.999491 1.00027e-06 999.999 0.999492 1.00049 -0.000263691 -0.0048232 9994.92 0 0 0 
0.00195312 0.490234 0.000991593 0.999488 9.91594e-07 999.999 0.999489 1.00048 -0.000262801 -0.00349746 9994.89 0 0 0 
0.00195312 0.494141 0.000986502 0.999486 9.86503e-07 1000 0.999487 1.00047 -0.000262551 -0.00207839 9994.87 0 0 0 
0.00195312 0.498047 0.00098458 0.999483 9.84581e-07 999.999 0.999484 1.00047 -0.000262553 -0.000860812 9994.84 0 0 0 
0.00585938 0.00195312 1000.19 8.30753e-07 0.999999 1000.19 1.18902 1000.19 0.00226357 -0.000894639 11890.2 0 0 0 
0.00585938 0.00585938 1000.19 8.66315e-07 0.999999 1000.19 1.18588 1000.19 0.00226361 -0.00219916 11858.8 0 0 0 
0.00585938 0.00976562 1000.18 9.26755e-07 0.999999 1000.18 1.18411 1000.18 0.00226421 -0.00367959 11841.1 0 0 0 
0.00585938 0.0136719 1000.18 9.92849e-07 0.999999 1000.18 1.18141 1000.18 0.00226596 -0.00508757 11814.1 0 0 0 
0.00585938 0.0175781 1000.18 1.04758e-06 0.999999 1000.18 1.17911 1000.18 0.00226944 -0.00655756 11791.1 0 0 0 
0.00585938 0.0214844 1000.18 1.08189e-06 0.999999 1000.18 1.1765 1000.18 0.00227499 -0.00800515 11765 0 0 0 
0.00585938 0.0253906 1000.17 1.09456e-06 0.999999 1000.17 1.17403 1000.17 0.00228272 -0.00947516 11740.3 0 0 0 
0.00585938 0.0292969 1000.17 1.09034e-06 0.999999 1000.17 1.17145 1000.17 0.00229251 -0.0109419 11714.5 0 0 0 
0.00585938 0.0332031 1000.17 1.0768e-06 0.999999 1000.17 1.16891 1000.17 0.00230407 -0.0124218 11689.1 0 0 0 
0.00585938 0.0371094 1000.17 1.06106e-06 0.999999 1000.17 1.16632 1000.17 0.00231697 -0.0139067 11663.2 0 0 0 
0.00585938 0.0410156 1000.16 1.0472e-06 0.999999 1000.16 1.16375 1000.16 0.00233079 -0.0154026 11637.5 0 0 0 
0.00585938 0.0449219 1000.16 1.03515e-06 0.999999 1000.16 1.16114 1000.16 0.00234517 -0.016907 11611.4 0 0 0 
0.00585938 0.0488281 1000.16 1.02136e-06 0.999999 1000.16 1.15853 1000.16 0.00235999 -0.0184219 11585.3 0 0 0 
0.00585938 0.0527344 1000.16 1.00146e-06 0.999999 1000.16 1.15591 1000.16 0.00237535 -0.0199468 11559.1 0 0 0 
0.00585938 0.0566406 1000.15 9.73927e-07 0.999999 1000.15 1.15327 1000.15 0.00239166 -0.0214826 11532.7 0 0 0 
0.00585938 0.0605469 1000.15 9.43261e-07 0.999999 1000.15 1.15062 1000.15 0.0024094 -0.0230299 11506.2 0 0 0 
0.00585938 0.0644531 1000.15 9.20775e-07 0.999999 1000.15 1.14796 1000.15 0.00242908 -0.0245901 11479.6 0 0 0 
0.00585938 0.0683594 1000.14 9.21603e-07 0.999999 1000.15 1.14529 1000.14 0.00245116 -0.0261644 11452.9 0 0 0 
0.00585938 0.0722656 1000.14 9.58089e-07 0.999999 1000.14 1.1426 1000.14 0.00247608 -0.0277546 11426 0 0 0 
0.00585938 0.0761719 1000.14 1.03181e-06 0.999999 1000.14 1.13991 1000.14 0.00250407 -0.0293627 11399.1 0 0 0 
0.00585938 0.0800781 1000.14 1.12791e-06 0.999999 1000.14 1.1372 1000.14 0.0025345 -0.0309905 11372 0 0 0 
0.00585938 0.0839844 1000.13 1.21486e-06 0.999999 1000.13 1.13447 1000.13 0.00256518 -0.032639 11344.7 0 0 0 
0.00585938 0.0878906 1000.13 1.25097e-06 0.999999 1000.13 1.13174 1000.13 0.00259245 -0.0343072 11317.4 0 0 0 
0.00585938 0.0917969 1000.13 1.19652e-06 0.999999 1000.13 1.12899 1000.13 0.0026133 -0.0359918 11289.9 0 0 0 
0.00585938 0.0957031 1000.13 1.0299e-06 0.999999 1000.13 1.12624 1000.13 0.00262874 -0.037689 11262.4 0 0 0 
0.00585938 0.0996094 1000.12 7.66062e-07 0.999999 1000.12 1.12347 1000.12 0.00264567 -0.0393974 11234.7 0 0 0 
0.00585938 0.103516 1000.12 4.72784e-07 1 1000.12 1.12069 1000.12 0.00267436 -0.0411214 11206.9 0 0 0 
0.00585938 0.107422 1000.12 2.73716e-07 1 1000.12 1.1179 1000.12 0.00272145 -0.0428712 11179 0 0 0 
0.00585938 0.111328 1000.11 3.21945e-07 1 1000.12 1.1151 1000.11 0.00278402 -0.0446574 11151 0 0 0 
0.00585938 0.115234 1000.11 7.35298e-07 0.999999 1000.11 1.11229 1000.11 0.00285127 -0.0464877 11122.9 0 0 0 
0.00585938 0.119141 1000.11 1.51001e-06 0.999999 1000.11 1.10948 1000.11 0.00291445 -0.0483599 11094.8 0 0 0 
0.00585938 0.123047 1000.1 2.46066e-06 0.999998 1000.11 1.10663 1000.1 0.00297566 -0.0502747 11066.3 0 0 0 
0.00585938 0.126953 1000.1 3.24342e-06 0.999997 1000.1 1.10382 1000.1 0.00304307 -0.0522283 11038.2 0 0 0 
0.00585938 0.130859 1000.1 3.48444e-06 0.999997 1000.1 1.10093 1000.1 0.00311316 -0.0542335 11009.3 0 0 0 
0.00585938 0.134766 1000.1 2.97095e-06 0.999997 1000.1 1.09814 1000.1 0.00315836 -0.0562682 10981.4 0 0 0 
0.00585938 0.138672 1000.09 1.81705e-06 0.999998 1000.1 1.09518 1000.09 0.00314513 -0.058336 10951.8 0 0 0 
0.00585938 0.142578 1000.09 5.35177e-07 1 1000.09 1.09285 1000.09 0.00307946 -0.0603752 10928.5 0 0 0 
0.00585938 0.146484 1000.08 2.70673e-08 1 1000.08 1.084 1000.08 0.00303277 -0.0625366 10840 1 0 0 
0.00585938 0.150391 1000.08 1.56258e-06 0.999999 1000.09 1.08611 1000.08 0.00305454 -0.0643686 10861.1 0 0 0 
0.00585938 0.154297 1000.08 7.85788e-06 0.999993 1000.08 1.08365 1000.08 0.00306507 -0.0663362 10836.5 0 0 0 
0.00585938 0.158203 1000.06 1.91601e-05 0.999982 1000.08 1.0807 1000.06 0.00303259 -0.0683189 10807 0 0 0 
0.00585938 0.162109 1000.05 3.33982e-05 0.999969 1000.08 1.07777 1000.05 0.00300308 -0.070292 10777.7 0 0 0 
0.00585938 0.166016 1000.03 4.67167e-05 0.999957 1000.07 1.07479 1000.03 0.00303583 -0.0722613 10747.9 0 0 0 
0.00585938 0.169922 1000.02 5.47198e-05 0.999949 1000.07 1.07182 1000.02 0.00314766 -0.0742794 10718.2 0 0 0 
0.00585938 0.173828 1000.02 5.45654e-05 0.999949 1000.07 1.06884 1000.02 0.00330778 -0.0763852 10688.4 0 0 0 
0.00585938 0.177734 1000.02 4.7652e-05 0.999955 1000.07 1.06586 1000.02 0.00347263 -0.0785979 10658.6 0 0 0 
0.00585938 0.181641 1000.02 4.23671e-05 0.99996 1000.06 1.06286 1000.02 0.00361675 -0.0809104 10628.6 0 0 0 
0.00585938 0.185547 1000.01 5.63544e-05 0.999947 1000.06 1.05986 1000.01 0.00373863 -0.0833084 10598.6 0 0 0 
0.00585938 0.189453 999.945 0.000118151 0.999888 1000.06 1.05684 999.945 0.00384656 -0.0857783 10568.4 0 0 0 
0.00585938 0.193359 999.799 0.000268749 0.999745 1000.05 1.05382 999.799 0.00394343 -0.0883108 10538.2 0 0 0 
0.00585938 0.197266 999.514 0.000564492 0.999463 1000.05 1.05079 999.514 0.00402327 -0.0908939 10507.9 0 0 0 
0.00585938 0.201172 999.013 0.00108383 0.998966 1000.05 1.04775 999.014 0.00407851 -0.0935096 10477.5 0 0 0 
0.00585938 0.205078 998.185 0.00194225 0.998141 1000.04 1.04469 998.187 0.00410869 -0.0961338 10446.9 0 0 0 
0.00585938 0.208984 996.852 0.0033227 0.99681 1000.04 1.04162 996.855 0.00412251 -0.0987399 10416.2 0 0 0 
0.00585938 0.212891 994.709 0.00553487 0.99467 1000.04 1.03852 994.714 0.00413197 -0.1013 10385.2 0 0 0 
0.00585938 0.216797 991.219 0.00912843 0.991183 1000.04 1.03538 991.228 0.00414383 -0.10378 10353.8 0 0 0 
0.00585938 0.220703 985.389 0.0151137 0.985358 1000.03 1.03218 985.404 0.00415451 -0.106125 10321.8 0 0 0 
0.00585938 0.224609 975.332 0.0254101 0.975303 1000.03 1.02889 975.357 0.00415136 -0.108236 10288.9 0 0 0 
0.00585938 0.228516 957.298 0.0438154 0.957273 1000.03 1.02548 957.341 0.0041219 -0.109939 10254.8 0 0 0 
0.00585938 0.232422 923.373 0.0783249 0.923353 1000.02 1.02189 923.451 0.00406927 -0.11095 10218.9 0 0 0 
0.00585938 0.236328 857.056 0.145546 0.85704 1000.02 1.01809 857.201 0.00401988 -0.110755 10180.9 0 0 0 
0.00585938 0.240234 742.95 0.260672 0.742939 1000.01 1.01405 743.21 0.00400586 -0.108756 10140.5 0 0 0 
0.00585938 0.244141 588.816 0.415323 0.58881 1000.01 1.01005 589.231 0.0040632 -0.105013 10100.5 0 0 0 
0.00585938 0.248047 419.512 0.584253 0.419509 1000.01 1.00648 420.096 0.00421495 -0.10045 10064.8 0 0 0 
0.00585938 0.251953 264.158 0.738637 0.264157 1000 1.0038 264.896 0.00445325 -0.0964635 10038 0 0 0 
0.00585938 0.255859 147.956 0.853842 0.147955 1000 1.00211 148.81 0.00473707 -0.093966 10021.1 0 0 0 
0.00585938 0.259766 79.696 0.921376 0.0796959 1000 1.00116 80.6173 0.00500343 -0.0928452 10011.6 0 0 0 
0.00585938 0.263672 44.6389 0.95597 0.0446389 1000 1.00064 45.5949 0.00518442 -0.0927951 10006.4 0 0 0 
0.00585938 0.267578 25.9914 0.974329 0.0259914 1000 1.00033 26.9658 0.00521276 -0.0934211 10003.3 0 0 0 
0.00585938 0.271484 15.5656 0.984575 0.0155656 1000 1.00014 16.5502 0.00501182 -0.094395 10001.4 0 0 0 
0.00585938 0.275391 9.49934 0.990526 0.00949934 1000 1.00003 10.4899 0.00453877 -0.0954315 10000.3 0 0 0 
0.00585938 0.279297 5.84724 0.994104 0.00584724 1000 0.999951 6.84134 0.00382198 -0.0962726 9999.51 0 0 0 
0.00585938 0.283203 3.58646 0.996315 0.00358646 1000 0.999901 4.58278 0.00295873 -0.096726 9999.01 0 0 0 
0.00585938 0.287109 2.16099 0.997707 0.00216099 1000 0.999868 3.15869 0.00208412 -0.0967015 9998.68 0 0 0 
0.00585938 0.291016 1.25856 0.998586 0.00125856 1000 0.999844 2.25715 0.00133275 -0.096209 9998.44 0 0 0 
0.00585938 0.294922 0.696324 0.999131 0.000696324 1000 0.999827 1.69545 0.000791928 -0.0953431 9998.27 0 0 0 
0.00585938 0.298828 0.360598 0.999453 0.000360598 1000 0.999813 1.36005 0.0004656 -0.0942407 9998.13 0 0 0 
0.00585938 0.302734 0.175489 0.999627 0.000175489 1000 0.999802 1.17512 0.000280677 -0.093011 9998.02 0 0 0 
0.00585938 0.306641 0.0870884 0.999705 8.70884e-05 1000 0.999792 1.08679 0.000129648 -0.0916985 9997.92 0 0 0 
0.00585938 0.310547 0.0559467 0.999727 5.59467e-05 1000 0.999783 1.05567 -7.85816e-05 -0.0902872 9997.83 0 0 0 
0.00585938 0.314453 0.0535967 0.99972 5.35967e-05 1000 0.999773 1.05332 -0.000387075 -0.0887165 9997.73 0 0 0 
0.00585938 0.318359 0.0607831 0.999703 6.07831e-05 1000 0.999764 1.06049 -0.000787896 -0.0869163 9997.64 0 0 0 
0.00585938 0.322266 0.0661191 0.999689 6.61191e-05 1000 0.999755 1.06581 -0.00122929 -0.0848386 9997.55 0 0 0 
0.00585938 0.326172 0.0645902 0.999681 6.45902e-05 1000 0.999746 1.06427 -0.00162368 -0.0824915 9997.46 0 0 0 
0.00585938 0.330078 0.0558035 0.999681 5.58035e-05 1000 0.999736 1.05548 -0.00186699 -0.0799376 9997.36 0 0 0 
0.00585938 0.333984 0.0421517 0.999685 4.21517e-05 1000 0.999727 1.04184 -0.00188324 -0.0773153 9997.27 0 0 0 
0.00585938 0.337891 0.02714 0.999691 2.714e-05 1000 0.999719 1.02683 -0.00168523 -0.0747595 9997.19 0 0 0 
0.00585938 0.341797 0.014061 0.999696 1.4061e-05 1000 0.99971 1.01376 -0.00137755 -0.0724082 9997.1 0 0 0 
0.00585938 0.345703 0.00509508 0.999697 5.09508e-06 1000 0.999702 1.00479 -0.00109943 -0.0702557 9997.02 0 0 0 
0.00585938 0.349609 0.000813476 0.999693 8.13476e-07 1000 0.999694 1.00051 -0.000954706 -0.0684057 9996.94 1 0 0 
0.00585938 0.353516 6.18912e-07 0.999694 6.1896e-10 999.923 0.999694 0.999695 -0.000939941 -0.066725 9996.94 1 0 0 
0.00585938 0.357422 0.000273206 0.999676 2.73207e-07 1000 0.999676 0.999949 -0.000968146 -0.0644346 9996.76 0 0 0 
0.00585938 0.361328 0.00107594 0.999668 1.07594e-06 1000 0.999669 1.00074 -0.00114556 -0.0624734 9996.69 0 0 0 
0.00585938 0.365234 0.00195206 0.999659 1.95206e-06 1000 0.999661 1.00161 -0.00145339 -0.0603178 9996.61 0 0 0 
0.00585938 0.369141 0.00260304 0.999651 2.60304e-06 1000 0.999653 1.00225 -0.00176561 -0.0580371 9996.53 0 0 0 
0.00585938 0.373047 0.00289591 0.999642 2.89591e-06 1000 0.999645 1.00254 -0.00195065 -0.0555665 9996.45 0 0 0 
0.00585938 0.376953 0.00282714 0.999635 2.82714e-06 1000 0.999638 1.00246 -0.0019467 -0.0530724 9996.38 0 0 0 
0.00585938 0.380859 0.00247079 0.999628 2.47079e-06 1000 0.99963 1.0021 -0.00179247 -0.0506341 9996.3 0 0 0 
0.00585938 0.384766 0.00193638 0.999621 1.93638e-06 1000 0.999623 1.00156 -0.00158016 -0.0483409 9996.23 0 0 0 
0.00585938 0.388672 0.00134407 0.999615 1.34407e-06 1000 0.999616 1.00096 -0.00139308 -0.0461915 9996.16 0 0 0 
0.00585938 0.392578 0.000809538 0.999608 8.09538e-07 1000 0.999609 1.00042 -0.00127286 -0.0441631 9996.09 0 0 0 
0.00585938 0.396484 0.000427949 0.999602 4.27949e-07 1000 0.999602 1.00003 -0.00121719 -0.0422076 9996.02 0 0 0 
0.00585938 0.400391 0.000255265 0.999595 2.55265e-07 1000 0.999596 0.999851 -0.00120041 -0.0402927 9995.96 0 0 0 
0.00585938 0.404297 0.000294459 0.999589 2.94459e-07 1000 0.999589 0.999883 -0.00119748 -0.0383991 9995.89 0 0 0 
0.00585938 0.408203 0.000496183 0.999582 4.96183e-07 1000 0.999583 1.00008 -0.00119495 -0.0365226 9995.83 0 0 0 
0.00585938 0.412109 0.000776715 0.999576 7.76716e-07 1000 0.999577 1.00035 -0.00118869 -0.0346634 9995.77 0 0 0 
0.00585938 0.416016 0.00104657 0.999569 1.04657e-06 1000 0.999571 1.00062 -0.00117705 -0.0328242 9995.71 0 0 0 
0.00585938 0.419922 0.00123782 0.999563 1.23782e-06 1000 0.999565 1.0008 -0.00115714 -0.0310093 9995.65 0 0 0 
0.00585938 0.423828 0.00131984 0.999558 1.31984e-06 1000 0.999559 1.00088 -0.00112613 -0.0292248 9995.59 0 0 0 
0.00585938 0.427734 0.0012997 0.999552 1.2997e-06 1000 0.999554 1.00085 -0.00108423 -0.0274779 9995.54 0 0 0 
0.00585938 0.431641 0.00121055 0.999547 1.21055e-06 1000 0.999548 1.00076 -0.00103592 -0.0257741 9995.48 0 0 0 
0.00585938 0.435547 0.00109497 0.999542 1.09497e-06 999.999 0.999543 1.00064 -0.000988132 -0.0241149 9995.43 0 0 0 
0.00585938 0.439453 0.000990275 0.999537 9.90276e-07 999.999 0.999538 1.00053 -0.000947147 -0.0224972 9995.38 0 0 0 
0.00585938 0.443359 0.000919822 0.999532 9.19822e-07 999.999 0.999533 1.00045 -0.000916073 -0.0209147 9995.33 0 0 0 
0.00585938 0.447266 0.000890962 0.999528 8.90962e-07 1000 0.999529 1.00042 -0.000894314 -0.0193602 9995.29 0 0 0 
0.00585938 0.451172 0.000898098 0.999523 8.98099e-07 1000 0.999524 1.00042 -0.00087872 -0.0178282 9995.24 0 0 0 
0.00585938 0.455078 0.000928219 0.999519 9.28219e-07 1000 0.99952 1.00045 -0.000865448 -0.0163147 9995.2 0 0 0 
0.00585938 0.458984 0.000966595 0.999515 9.66595e-07 1000 0.999516 1.00048 -0.000851529 -0.0148196 9995.16 0 0 0 
0.00585938 0.462891 0.00100109 0.999511 1.00109e-06 1000 0.999512 1.00051 -0.00083564 -0.0133411 9995.12 0 0 0 
0.00585938 0.466797 0.00102441 0.999507 1.02442e-06 999.999 0.999508 1.00053 -0.000818065 -0.0118836 9995.08 0 0 0 
0.00585938 0.470703 0.0010344 0.999503 1.0344e-06 1000 0.999505 1.00054 -0.000800176 -0.0104405 9995.05 0 0 0 
0.00585938 0.474609 0.00103286 0.9995 1.03286e-06 1000 0.999501 1.00053 -0.000783727 -0.00902194 9995.01 0 0 0 
0.00585938 0.478516 0.00102382 0.999497 1.02382e-06 1000 0.999498 1.00052 -0.00077025 -0.00760713 9994.98 0 0 0 
0.00585938 0.482422 0.00101174 0.999493 1.01174e-06 999.999 0.999494 1.00051 -0.000760607 -0.00622641 9994.94 0 0 0 
0.00585938 0.486328 0.00100025 0.999491 1.00025e-06 999.999 0.999492 1.00049 -0.000754826 -0.00482314 9994.92 0 0 0 
0.00585938 0.490234 0.000991582 0.999487 9.91582e-07 999.999 0.999488 1.00048 -0.000752144 -0.00349746 9994.88 0 0 0 
0.00585938 0.494141 0.000986497 0.999485 9.86497e-07 1000 0.999486 1.00047 -0.000751398 -0.00207841 9994.86 0 0 0 
0.00585938 0.498047 0.000984578 0.999482 9.84578e-07 999.999 0.999483 1.00047 -0.000751416 -0.000860827 9994.83 0 0 0 
0.00976562 0.00195312 1000.19 8.28571e-07 0.999999 1000.19 1.189 1000.19 0.00377104 -0.000894332 11890 0 0 0 
0.00976562 0.00585938 1000.19 8.6403e-07 0.999999 1000.19 1.18586 1000.19 0.00377107 -0.00219821 11858.6 0 0 0 
0.00976562 0.00976562 1000.18 9.24291e-07 0.999999 1000.18 1.1841 1000.18 0.00377201 -0.00367795 11841 0 0 0 
0.00976562 0.0136719 1000.18 9.90186e-07 0.999999 1000.18 1.1814 1000.18 0.0037749 -0.00508516 11814 0 0 0 
0.00976562 0.0175781 1000.18 1.04475e-06 0.999999 1000.18 1.1791 1000.18 0.00378068 -0.00655434 11791 0 0 0 
0.00976562 0.0214844 1000.18 1.07896e-06 0.999999 1000.18 1.17649 1000.18 0.00378992 -0.00800112 11764.9 0 0 0 
0.00976562 0.0253906 1000.17 1.09161e-06 0.999999 1000.17 1.17402 1000.17 0.00380282 -0.00947033 11740.2 0 0 0 
0.00976562 0.0292969 1000.17 1.08742e-06 0.999999 1000.17 1.17144 1000.17 0.00381916 -0.0109363 11714.4 0 0 0 
0.00976562 0.0332031 1000.17 1.07395e-06 0.999999 1000.17 1.1689 1000.17 0.00383842 -0.0124154 11689 0 0 0 
0.00976562 0.0371094 1000.17 1.05827e-06 0.999999 1000.17 1.16631 1000.17 0.0038599 -0.0138995 11663.1 0 0 0 
0.00976562 0.0410156 1000.16 1.04446e-06 0.999999 1000.16 1.16373 1000.16 0.00388291 -0.0153946 11637.3 0 0 0 
0.00976562 0.0449219 1000.16 1.03238e-06 0.999999 1000.16 1.16113 1000.16 0.00390689 -0.0168982 11611.3 0 0 0 
0.00976562 0.0488281 1000.16 1.01851e-06 0.999999 1000.16 1.15852 1000.16 0.0039316 -0.0184124 11585.2 0 0 0 
0.00976562 0.0527344 1000.16 9.9853e-07 0.999999 1000.16 1.1559 1000.16 0.00395729 -0.0199365 11559 0 0 0 
0.00976562 0.0566406 1000.15 9.70966e-07 0.999999 1000.15 1.15326 1000.15 0.00398454 -0.0214717 11532.6 0 0 0 