TITLE=FvSolution
VARIABLES=X Y RHO1Z1 RHO2Z2 Z1 RHO1 RHO2 RHO U V PRE theta lambdaX lambdaY 
ZONE T=TA, I=128, J=128, DATAPACKING = POINT
0.00195312 0.00195312 1000.19 9.33084e-07 0.999999 1000.19 1.18768 1000.19 0.000751402 -0.000813793 11876.8 0 0 0 
0.00195312 0.00585938 1000.18 9.44925e-07 0.999999 1000.18 1.18455 1000.18 0.000751454 -0.00195593 11845.5 0 0 0 
0.00195312 0.00976562 1000.18 9.83868e-07 0.999999 1000.18 1.18278 1000.18 0.000751741 -0.00327649 11827.8 0 0 0 
0.00195312 0.0136719 1000.18 1.0259e-06 0.999999 1000.18 1.18006 1000.18 0.000752466 -0.00452341 11800.6 0 0 0 
0.00195312 0.0175781 1000.18 1.04179e-06 0.999999 1000.18 1.17774 1000.18 0.000753788 -0.00583358 11777.4 0 0 0 
0.00195312 0.0214844 1000.17 1.03605e-06 0.999999 1000.18 1.17509 1000.17 0.000755794 -0.00712184 11750.9 0 0 0 
0.00195312 0.0253906 1000.17 1.02681e-06 0.999999 1000.17 1.17259 1000.17 0.00075848 -0.00843363 11725.9 0 0 0 
0.00195312 0.0292969 1000.17 1.01771e-06 0.999999 1000.17 1.16997 1000.17 0.000761779 -0.0097429 11699.7 0 0 0 
0.00195312 0.0332031 1000.17 1.00972e-06 0.999999 1000.17 1.16739 1000.17 0.000765584 -0.0110661 11673.9 0 0 0 
0.00195312 0.0371094 1000.16 1.00355e-06 0.999999 1000.16 1.16476 1000.16 0.00076979 -0.0123951 11647.6 0 0 0 
0.00195312 0.0410156 1000.16 9.9948e-07 0.999999 1000.16 1.16213 1000.16 0.000774318 -0.0137359 11621.3 0 0 0 
0.00195312 0.0449219 1000.16 9.97384e-07 0.999999 1000.16 1.15946 1000.16 0.000779131 -0.0150863 11594.6 0 0 0 
0.00195312 0.0488281 1000.16 9.96875e-07 0.999999 1000.16 1.15679 1000.16 0.000784235 -0.0164487 11567.9 0 0 0 
0.00195312 0.0527344 1000.15 9.97445e-07 0.999999 1000.15 1.1541 1000.15 0.000789663 -0.0178227 11541 0 0 0.00343237 
0.00195312 0.0566406 1000.15 9.98592e-07 0.999999 1000.15 1.15139 1000.15 0.000795465 -0.0192099 11513.9 0 0 0.00481337 
0.00195312 0.0605469 1000.15 9.99882e-07 0.999999 1000.15 1.14866 1000.15 0.000801688 -0.0206106 11486.6 0 0 3.25522e-06 
0.00195312 0.0644531 1000.15 1.001e-06 0.999999 1000.15 1.14591 1000.15 0.000808369 -0.0220262 11459.1 0 0 -0.00137774 
0.00195312 0.0683594 1000.14 1.00175e-06 0.999999 1000.14 1.14314 1000.14 0.000815529 -0.0234576 11431.4 0 0 0 
0.00195312 0.0722656 1000.14 1.00208e-06 0.999999 1000.14 1.14036 1000.14 0.000823173 -0.0249059 11403.6 0 0 0 
0.00195312 0.0761719 1000.14 1.00203e-06 0.999999 1000.14 1.13756 1000.14 0.000831294 -0.0263721 11375.6 0 0 0 
0.00195312 0.0800781 1000.13 1.00171e-06 0.999999 1000.13 1.13475 1000.13 0.000839882 -0.0278573 11347.5 0 0 0 
0.00195312 0.0839844 1000.13 1.00127e-06 0.999999 1000.13 1.13191 1000.13 0.000848923 -0.0293625 11319.1 0 0 0 
0.00195312 0.0878906 1000.13 1.00085e-06 0.999999 1000.13 1.12906 1000.13 0.000858402 -0.0308887 11290.6 0 0 0 
0.00195312 0.0917969 1000.13 1.0006e-06 0.999999 1000.13 1.1262 1000.13 0.000868306 -0.0324369 11262 0 0 0 
0.00195312 0.0957031 1000.12 1.00055e-06 0.999999 1000.12 1.12332 1000.12 0.00087862 -0.034008 11233.2 0 0 0 
0.00195312 0.0996094 1000.12 1.0007e-06 0.999999 1000.12 1.12042 1000.12 0.000889337 -0.0356029 11204.2 0 0 0 
0.00195312 0.103516 1000.12 1.001e-06 0.999999 1000.12 1.11751 1000.12 0.000900459 -0.0372224 11175.1 0 0 0 
0.00195312 0.107422 1000.11 1.00138e-06 0.999999 1000.11 1.11458 1000.11 0.000912009 -0.0388676 11145.8 0 0 0 
0.00195312 0.111328 1000.11 1.00176e-06 0.999999 1000.11 1.11163 1000.11 0.000924029 -0.0405394 11116.3 0 0 0 
0.00195312 0.115234 1000.11 1.00207e-06 0.999999 1000.11 1.10868 1000.11 0.000936581 -0.0422388 11086.8 0 0 0 
0.00195312 0.119141 1000.1 1.00212e-06 0.999999 1000.11 1.1057 1000.1 0.000949729 -0.0439671 11057 0 0 0 
0.00195312 0.123047 1000.1 1.00173e-06 0.999999 1000.1 1.10272 1000.1 0.00096352 -0.0457255 11027.2 0 0 0 
0.00195312 0.126953 1000.1 1.00081e-06 0.999999 1000.1 1.09972 1000.1 0.000977957 -0.0475154 10997.2 0 0 0 
0.00195312 0.130859 1000.1 9.99598e-07 0.999999 1000.1 1.09671 1000.1 0.000992979 -0.0493381 10967.1 0 0 0 
0.00195312 0.134766 1000.09 1.00018e-06 0.999999 1000.09 1.09368 1000.09 0.00100847 -0.0511947 10936.8 0 0 0 
0.00195312 0.138672 1000.09 1.0079e-06 0.999999 1000.09 1.09064 1000.09 0.00102428 -0.0530861 10906.4 0 0 0 
0.00195312 0.142578 1000.09 1.0264e-06 0.999999 1000.09 1.08759 1000.09 0.00104027 -0.0550127 10875.9 0 0 0 
0.00195312 0.146484 1000.08 1.05661e-06 0.999999 1000.08 1.08453 1000.08 0.00105641 -0.0569751 10845.3 0 0 0 
0.00195312 0.150391 1000.08 1.09764e-06 0.999999 1000.08 1.08146 1000.08 0.00107279 -0.0589735 10814.6 0 0 0 
0.00195312 0.154297 1000.08 1.14929e-06 0.999999 1000.08 1.07837 1000.08 0.00108972 -0.0610088 10783.7 0 0 0 
0.00195312 0.158203 1000.07 1.21563e-06 0.999999 1000.08 1.07528 1000.07 0.00110768 -0.0630826 10752.8 0 0 0 
0.00195312 0.162109 1000.07 1.30774e-06 0.999999 1000.07 1.07217 1000.07 0.00112724 -0.0651975 10721.7 0 0 0 
0.00195312 0.166016 1000.07 1.77248e-06 0.999998 1000.07 1.06905 1000.07 0.001149 -0.0673574 10690.5 0 0 0 
0.00195312 0.169922 1000.06 3.83397e-06 0.999996 1000.07 1.06593 1000.06 0.00117345 -0.0695671 10659.3 0 0 0 
0.00195312 0.173828 1000.05 8.47459e-06 0.999992 1000.06 1.06279 1000.05 0.00120081 -0.0718321 10627.9 0 0 0 
0.00195312 0.177734 1000.04 1.63099e-05 0.999985 1000.06 1.05965 1000.04 0.00123102 -0.074158 10596.5 0 0 0 
0.00195312 0.181641 1000.03 2.76722e-05 0.999974 1000.06 1.0565 1000.03 0.00126357 -0.0765498 10565 0 0 0 
0.00195312 0.185547 1000.01 4.29322e-05 0.999959 1000.05 1.05334 1000.01 0.0012975 -0.0790109 10533.4 0 0 0 
0.00195312 0.189453 999.99 6.34596e-05 0.99994 1000.05 1.05017 999.99 0.00133133 -0.0815425 10501.7 0 0 0 
0.00195312 0.193359 999.957 9.42661e-05 0.99991 1000.05 1.047 999.957 0.00136296 -0.084142 10470 0 0 0 
0.00195312 0.197266 999.898 0.000152006 0.999854 1000.04 1.04383 999.898 0.00138976 -0.0868014 10438.3 0 0 0 
0.00195312 0.201172 999.69 0.000364459 0.99965 1000.04 1.04065 999.691 0.00140898 -0.0895044 10406.5 0 0 0 
0.00195312 0.205078 999.052 0.0010222 0.999015 1000.04 1.03747 999.053 0.00141954 -0.0922184 10374.7 0 0 0 
0.00195312 0.208984 997.85 0.00225914 0.997816 1000.03 1.03428 997.852 0.00142352 -0.0949012 10342.8 0 0 0 
0.00195312 0.212891 996.132 0.00401991 0.996101 1000.03 1.03108 996.136 0.00142422 -0.0975213 10310.8 0 0 0 
0.00195312 0.216797 994.025 0.00616963 0.993998 1000.03 1.02786 994.031 0.00142294 -0.100063 10278.6 0 0 0 
0.00195312 0.220703 991.546 0.00868744 0.991521 1000.02 1.02462 991.554 0.00141741 -0.102521 10246.2 0 0 0 
0.00195312 0.224609 988.344 0.0119259 0.988323 1000.02 1.02135 988.356 0.0014025 -0.104882 10213.5 0 0 0 
0.00195312 0.228516 983.158 0.0171639 0.98314 1000.02 1.01803 983.175 0.00137336 -0.107108 10180.3 0 0 0.00684049 
0.00195312 0.232422 971.188 0.0292491 0.971174 1000.01 1.01468 971.218 0.00132935 -0.109095 10146.8 0 0 0.35 
0.00195312 0.236328 941.179 0.0594951 0.941169 1000.01 1.01128 941.239 0.00127947 -0.110627 10112.8 0 0 0.35 
0.00195312 0.240234 863.853 0.137231 0.863846 1000.01 1.00792 863.99 0.00124185 -0.111371 10079.2 0 0 0.35 
0.00195312 0.244141 651.596 0.350083 0.651593 1000 1.00481 651.946 0.00123675 -0.110908 10048.1 0 -8.9287e-05 0.35 
0.00195312 0.248047 324.72 0.67703 0.324719 1000 1.00259 325.397 0.0012822 -0.109141 10025.9 0 0 0.35 
0.00195312 0.251953 127.776 0.87348 0.127775 1000 1.00144 128.649 0.0013783 -0.107698 10014.4 0 0 0.35 
0.00195312 0.255859 57.1037 0.943766 0.0571036 1000 1.00092 58.0474 0.00150424 -0.107142 10009.2 0 0 0.35 
0.00195312 0.259766 28.4464 0.972187 0.0284464 1000 1.00065 29.4186 0.00161875 -0.107428 10006.5 0 0 0.35 
0.00195312 0.263672 16.5295 0.98396 0.0165295 1000 1.0005 17.5135 0.00168105 -0.108298 10005 0 0 0 
0.00195312 0.267578 11.5316 0.988857 0.0115316 1000 1.00039 12.5205 0.00165736 -0.109593 10003.9 0 0 0 
0.00195312 0.271484 8.42032 0.99189 0.00842031 1000 1.00031 9.41221 0.00151914 -0.111002 10003.1 0 0 0 
0.00195312 0.275391 5.94772 0.994302 0.00594772 1000 1.00025 6.94202 0.00125712 -0.112284 10002.5 0 0 0 
0.00195312 0.279297 3.88991 0.996316 0.00388991 1000 1.00021 4.88622 0.000892953 -0.113134 10002.1 0 0 0 
0.00195312 0.283203 2.27104 0.997905 0.00227104 1000 1.00018 3.26894 0.000468137 -0.113371 10001.8 0 0 0 
0.00195312 0.287109 1.12767 0.999028 0.00112767 1000 1.00016 2.1267 2.54729e-05 -0.112857 10001.6 0 0.00158655 0.00321106 
0.00195312 0.291016 0.441589 0.999701 0.000441589 1000 1.00014 1.44129 -0.000386092 -0.111568 10001.4 0 0 0.00321106 
0.00195312 0.294922 0.131128 1 0.000131128 1000 1.00013 1.13113 -0.000733242 -0.109575 10001.3 0 0 0 
0.00195312 0.298828 0.055987 1.00007 5.5987e-05 1000 1.00012 1.05606 -0.00101846 -0.106999 10001.2 0 0 0 
0.00195312 0.302734 0.0397785 1.00008 3.97785e-05 1000 1.00012 1.03986 -0.00124083 -0.103949 10001.2 0 0 0 
0.00195312 0.306641 0.0295887 1.00008 2.95887e-05 1000 1.00011 1.02967 -0.00139409 -0.100566 10001.1 0 0 0 
0.00195312 0.310547 0.0226221 1.00008 2.26221e-05 1000 1.0001 1.0227 -0.00148012 -0.0969814 10001 0 0 0 
0.00195312 0.314453 0.0174113 1.00008 1.74113e-05 1000 1.00009 1.01749 -0.00151269 -0.0933198 10000.9 0 0 0 
0.00195312 0.318359 0.0131537 1.00007 1.31537e-05 1000 1.00009 1.01323 -0.00151089 -0.0896667 10000.9 0 0 0 
0.00195312 0.322266 0.00947836 1.00007 9.47836e-06 1000 1.00008 1.00955 -0.00149065 -0.0860741 10000.8 0 0 0 
0.00195312 0.326172 0.00633897 1.00006 6.33897e-06 1000 1.00007 1.0064 -0.00146122 -0.0825683 10000.7 0 0 0 
0.00195312 0.330078 0.00388038 1.00006 3.88038e-06 1000 1.00006 1.00394 -0.00142688 -0.0791633 10000.6 0 0 0 
0.00195312 0.333984 0.00226057 1.00005 2.26057e-06 1000 1.00006 1.00231 -0.00139 -0.0758667 10000.6 0 0 0 
0.00195312 0.337891 0.00147731 1.00005 1.4773e-06 1000 1.00005 1.00152 -0.00135283 -0.0726814 10000.5 0 0 0 
0.00195312 0.341797 0.00126407 1.00004 1.26407e-06 1000 1.00004 1.0013 -0.00131728 -0.0696061 10000.4 0 0 0 
0.00195312 0.345703 0.00119775 1.00003 1.19775e-06 1000 1.00003 1.00123 -0.00128441 -0.066636 10000.3 0 0 0 
0.00195312 0.349609 0.00114581 1.00003 1.14581e-06 1000 1.00003 1.00117 -0.00125438 -0.0637651 10000.3 0 0 0 
0.00195312 0.353516 0.00110079 1.00002 1.10079e-06 1000 1.00002 1.00112 -0.00122691 -0.0609873 10000.2 0 0 0 
0.00195312 0.357422 0.00106201 1.00001 1.06201e-06 1000 1.00001 1.00107 -0.00120181 -0.0582972 10000.1 0 0 0 
0.00195312 0.361328 0.00103194 1 1.03194e-06 1000 1 1.00104 -0.00117903 -0.0556896 10000 0 0 0 
0.00195312 0.365234 0.00101284 0.999996 1.01284e-06 1000 0.999997 1.00101 -0.00115838 -0.0531598 9999.97 0 -0.000111914 0 
0.00195312 0.369141 0.00100433 0.999989 1.00433e-06 1000 0.99999 1.00099 -0.0011394 -0.0507041 9999.9 0 0 0 
0.00195312 0.373047 0.00100253 0.999982 1.00253e-06 1000 0.999983 1.00098 -0.00112138 -0.0483196 9999.83 0 0 0 
0.00195312 0.376953 0.00100208 0.999975 1.00208e-06 1000 0.999976 1.00098 -0.00110359 -0.0460051 9999.76 0 0 0 
0.00195312 0.380859 0.0010016 0.999968 1.0016e-06 1000 0.999969 1.00097 -0.00108547 -0.0437602 9999.69 0 0 0 
0.00195312 0.384766 0.00100108 0.999962 1.00108e-06 1000 0.999963 1.00096 -0.00106682 -0.0415854 9999.63 0 0 0 
0.00195312 0.388672 0.00100059 0.999955 1.00059e-06 1000 0.999956 1.00096 -0.00104774 -0.039481 9999.56 0 0 0 
0.00195312 0.392578 0.00100023 0.999948 1.00023e-06 1000 0.999949 1.00095 -0.00102852 -0.0374472 9999.49 0 0 0 
0.00195312 0.396484 0.00100002 0.999942 1.00002e-06 1000 0.999943 1.00094 -0.0010095 -0.0354833 9999.43 0 0 0 
0.00195312 0.400391 0.000999943 0.999936 9.99943e-07 1000 0.999937 1.00094 -0.000991013 -0.0335879 9999.37 0 0 0 
0.00195312 0.404297 0.00099994 0.99993 9.99941e-07 1000 0.999931 1.00093 -0.000973306 -0.0317586 9999.31 0 0 -5.34622e-05 
0.00195312 0.408203 0.000999955 0.999923 9.99955e-07 1000 0.999924 1.00092 -0.000956513 -0.0299923 9999.24 0 0 -5.34622e-05 
0.00195312 0.412109 0.000999957 0.999918 9.99957e-07 1000 0.999919 1.00092 -0.000940678 -0.0282859 9999.19 0 0 0 
0.00195312 0.416016 0.000999942 0.999912 9.99942e-07 1000 0.999913 1.00091 -0.000925779 -0.0266361 9999.13 0 0 0 
0.00195312 0.419922 0.000999921 0.999906 9.99921e-07 1000 0.999907 1.00091 -0.000911746 -0.0250399 9999.07 0 0 0 
0.00195312 0.423828 0.000999901 0.999901 9.99901e-07 1000 0.999902 1.0009 -0.000898488 -0.0234945 9999.02 0 0 0 
0.00195312 0.427734 0.000999887 0.999895 9.99887e-07 1000 0.999896 1.0009 -0.000885906 -0.0219972 9998.96 0 0 0 
0.00195312 0.431641 0.000999877 0.99989 9.99877e-07 1000 0.999891 1.00089 -0.000873914 -0.0205456 9998.91 0 0 0 
0.00195312 0.435547 0.000999868 0.999885 9.99868e-07 1000 0.999886 1.00088 -0.00086244 -0.0191374 9998.86 0 0 0 
0.00195312 0.439453 0.000999861 0.99988 9.99861e-07 1000 0.999881 1.00088 -0.000851426 -0.0177703 9998.81 0 0 0 
0.00195312 0.443359 0.00099986 0.999875 9.9986e-07 1000 0.999876 1.00088 -0.000840832 -0.0164424 9998.76 0 0 0 
0.00195312 0.447266 0.000999866 0.999871 9.99866e-07 1000 0.999872 1.00087 -0.000830641 -0.0151513 9998.72 0 0 0.000193952 
0.00195312 0.451172 0.000999882 0.999866 9.99882e-07 1000 0.999867 1.00087 -0.00082088 -0.0138952 9998.67 0 0 -0.00241001 
0.00195312 0.455078 0.000999905 0.999862 9.99905e-07 1000 0.999863 1.00086 -0.000811623 -0.0126712 9998.63 0 0 -0.0018937 
0.00195312 0.458984 0.000999931 0.999858 9.99931e-07 1000 0.999859 1.00086 -0.000802991 -0.0114779 9998.59 0 0 0.00071026 
0.00195312 0.462891 0.000999956 0.999854 9.99957e-07 1000 0.999855 1.00085 -0.000795127 -0.0103106 9998.55 0 0 -0.000639382 
0.00195312 0.466797 0.000999975 0.99985 9.99975e-07 1000 0.999851 1.00085 -0.000788178 -0.00917004 9998.51 0 0 -0.000639382 
0.00195312 0.470703 0.000999982 0.999847 9.99982e-07 1000 0.999848 1.00085 -0.000782282 -0.00804687 9998.48 0 0 0.000479931 
0.00195312 0.474609 0.000999972 0.999843 9.99972e-07 1000 0.999844 1.00084 -0.000777547 -0.00694878 9998.44 0 0 0.000479931 
0.00195312 0.478516 0.00099994 0.99984 9.9994e-07 1000 0.999841 1.00084 -0.000774026 -0.00585415 9998.41 0 0 0 
0.00195312 0.482422 0.000999883 0.999837 9.99883e-07 1000 0.999838 1.00084 -0.000771674 -0.0047925 9998.38 0 0 0 
0.00195312 0.486328 0.000999804 0.999834 9.99804e-07 1000 0.999835 1.00083 -0.000770338 -0.0037081 9998.35 0 0 0 
0.00195312 0.490234 0.000999714 0.999831 9.99714e-07 1000 0.999832 1.00083 -0.000769755 -0.00269967 9998.32 0 0 0 
0.00195312 0.494141 0.000999634 0.999829 9.99635e-07 1000 0.99983 1.00083 -0.000769621 -0.00159843 9998.3 0 0 0 
0.00195312 0.498047 0.000999586 0.999825 9.99586e-07 1000 0.999826 1.00082 -0.000769662 -0.000701273 9998.26 0 0 0 
0.00585938 0.00195312 1000.19 9.32737e-07 0.999999 1000.19 1.18782 1000.19 0.00224051 -0.000813704 11878.2 0 0 0 
0.00585938 0.00585938 1000.18 9.44576e-07 0.999999 1000.18 1.1847 1000.18 0.00224065 -0.00195565 11847 0 0 0 
0.00585938 0.00976562 1000.18 9.83511e-07 0.999999 1000.18 1.18292 1000.18 0.0022415 -0.00327599 11829.2 0 0 0 
0.00585938 0.0136719 1000.18 1.02553e-06 0.999999 1000.18 1.1802 1000.18 0.00224368 -0.00452267 11802 0 0 0 
0.00585938 0.0175781 1000.18 1.04142e-06 0.999999 1000.18 1.17788 1000.18 0.00224764 -0.00583258 11778.8 0 0 0 
0.00585938 0.0214844 1000.17 1.03568e-06 0.999999 1000.18 1.17524 1000.17 0.00225367 -0.00712058 11752.4 0 0 0 
0.00585938 0.0253906 1000.17 1.02644e-06 0.999999 1000.17 1.17274 1000.17 0.00226173 -0.00843211 11727.4 0 0 0 
0.00585938 0.0292969 1000.17 1.01735e-06 0.999999 1000.17 1.17012 1000.17 0.00227164 -0.00974112 11701.2 0 0 0 
0.00585938 0.0332031 1000.17 1.00937e-06 0.999999 1000.17 1.16753 1000.17 0.00228306 -0.011064 11675.3 0 0 0 
0.00585938 0.0371094 1000.16 1.0032e-06 0.999999 1000.16 1.1649 1000.16 0.00229568 -0.0123928 11649 0 0 0 
0.00585938 0.0410156 1000.16 9.99124e-07 0.999999 1000.16 1.16227 1000.16 0.00230927 -0.0137334 11622.7 0 0 0 
0.00585938 0.0449219 1000.16 9.97029e-07 0.999999 1000.16 1.15961 1000.16 0.00232371 -0.0150836 11596.1 0 0 0 
0.00585938 0.0488281 1000.16 9.96519e-07 0.999999 1000.16 1.15693 1000.16 0.00233902 -0.0164457 11569.3 0 0 0 
0.00585938 0.0527344 1000.15 9.97089e-07 0.999999 1000.15 1.15424 1000.15 0.00235531 -0.0178196 11542.4 0 0 0.00343284 
0.00585938 0.0566406 1000.15 9.98236e-07 0.999999 1000.15 1.15153 1000.15 0.00237271 -0.0192065 11515.3 0 0 0.00481384 
0.00585938 0.0605469 1000.15 9.99526e-07 0.999999 1000.15 1.1488 1000.15 0.00239137 -0.0206071 11488 0 0 3.25522e-06 
0.00585938 0.0644531 1000.15 1.00064e-06 0.999999 1000.15 1.14605 1000.15 0.0024114 -0.0220225 11460.5 0 0 -0.00137774 
0.00585938 0.0683594 1000.14 1.0014e-06 0.999999 1000.14 1.14329 1000.14 0.00243286 -0.0234537 11432.9 0 0 0 
0.00585938 0.0722656 1000.14 1.00173e-06 0.999999 1000.14 1.1405 1000.14 0.00245577 -0.0249018 11405 0 0 0 
0.00585938 0.0761719 1000.14 1.00168e-06 0.999999 1000.14 1.13771 1000.14 0.0024801 -0.0263679 11377.1 0 0 0 
0.00585938 0.0800781 1000.13 1.00136e-06 0.999999 1000.13 1.13489 1000.13 0.00250582 -0.0278529 11348.9 0 0 0 
0.00585938 0.0839844 1000.13 1.00091e-06 0.999999 1000.13 1.13206 1000.13 0.0025329 -0.029358 11320.6 0 0 0 
0.00585938 0.0878906 1000.13 1.0005e-06 0.999999 1000.13 1.12921 1000.13 0.00256129 -0.0308841 11292.1 0 0 0 
0.00585938 0.0917969 1000.13 1.00024e-06 0.999999 1000.13 1.12634 1000.13 0.00259095 -0.0324321 11263.4 0 0 0 
0.00585938 0.0957031 1000.12 1.0002e-06 0.999999 1000.12 1.12346 1000.12 0.00262184 -0.034003 11234.6 0 0 0 
0.00585938 0.0996094 1000.12 1.00035e-06 0.999999 1000.12 1.12057 1000.12 0.00265393 -0.0355978 11205.7 0 0 0.000469993 
0.00585938 0.103516 1000.12 1.00065e-06 0.999999 1000.12 1.11765 1000.12 0.00268724 -0.0372172 11176.5 0 0 0.000469993 
0.00585938 0.107422 1000.11 1.00102e-06 0.999999 1000.11 1.11472 1000.11 0.00272183 -0.0388623 11147.2 0 0 0 
0.00585938 0.111328 1000.11 1.00141e-06 0.999999 1000.11 1.11178 1000.11 0.00275784 -0.040534 11117.8 0 0 0 
0.00585938 0.115234 1000.11 1.00172e-06 0.999999 1000.11 1.10883 1000.11 0.00279542 -0.0422334 11088.3 0 0 0 
0.00585938 0.119141 1000.1 1.00178e-06 0.999999 1000.11 1.10585 1000.1 0.00283478 -0.0439616 11058.5 0 0 0 
0.00585938 0.123047 1000.1 1.00139e-06 0.999999 1000.1 1.10287 1000.1 0.00287605 -0.04572 11028.7 0 0 0 
0.00585938 0.126953 1000.1 1.00047e-06 0.999999 1000.1 1.09987 1000.1 0.00291924 -0.0475098 10998.7 0 0 0 
0.00585938 0.130859 1000.1 9.99268e-07 0.999999 1000.1 1.09686 1000.1 0.00296417 -0.0493324 10968.6 0 0 0 
0.00585938 0.134766 1000.09 9.99858e-07 0.999999 1000.09 1.09383 1000.09 0.0030105 -0.0511888 10938.3 0 0 0 
0.00585938 0.138672 1000.09 1.00759e-06 0.999999 1000.09 1.0908 1000.09 0.00305779 -0.0530799 10908 0 0 0 
0.00585938 0.142578 1000.09 1.02608e-06 0.999999 1000.09 1.08775 1000.09 0.00310565 -0.0550062 10877.5 0 0 0 
0.00585938 0.146484 1000.08 1.05623e-06 0.999999 1000.08 1.08469 1000.08 0.00315397 -0.0569683 10846.9 0 0 0 
0.00585938 0.150391 1000.08 1.09718e-06 0.999999 1000.08 1.08161 1000.08 0.00320306 -0.0589665 10816.1 0 0 0 
0.00585938 0.154297 1000.08 1.14879e-06 0.999999 1000.08 1.07853 1000.08 0.00325379 -0.0610017 10785.3 0 0 0 
0.00585938 0.158203 1000.07 1.21513e-06 0.999999 1000.08 1.07544 1000.07 0.00330756 -0.0630756 10754.4 0 0 0 
0.00585938 0.162109 1000.07 1.30738e-06 0.999999 1000.07 1.07233 1000.07 0.00336608 -0.0651906 10723.3 0 0 0 
0.00585938 0.166016 1000.07 1.77214e-06 0.999998 1000.07 1.06922 1000.07 0.00343105 -0.0673504 10692.2 0 -0.000200491 0 
0.00585938 0.169922 1000.06 3.83187e-06 0.999996 1000.07 1.06609 1000.06 0.00350383 -0.0695595 10660.9 0 0 0 
0.00585938 0.173828 1000.05 8.46733e-06 0.999992 1000.06 1.06296 1000.06 0.00358507 -0.0718228 10629.6 0 0 0 
0.00585938 0.177734 1000.04 1.62945e-05 0.999985 1000.06 1.05982 1000.04 0.00367441 -0.0741451 10598.2 0 0 0 
0.00585938 0.181641 1000.03 2.76486e-05 0.999974 1000.06 1.05667 1000.03 0.00377028 -0.0765306 10566.7 0 0 0 
0.00585938 0.185547 1000.01 4.28969e-05 0.999959 1000.05 1.05351 1000.01 0.00386969 -0.0789816 10535.1 0 0 0 
0.00585938 0.189453 999.99 6.34095e-05 0.99994 1000.05 1.05034 999.99 0.00396815 -0.0814979 10503.4 0 0 0 
0.00585938 0.193359 999.957 9.41966e-05 0.99991 1000.05 1.04717 999.957 0.00405959 -0.084076 10471.7 0 0 0 
0.00585938 0.197266 999.898 0.0001519 0.999855 1000.04 1.04399 999.899 0.00413691 -0.0867076 10439.9 0 0 0 
0.00585938 0.201172 999.691 0.000364232 0.99965 1000.04 1.04079 999.691 0.00419373 -0.0893791 10407.9 0 0 0 
0.00585938 0.205078 999.053 0.0010217 0.999015 1000.04 1.03759 999.054 0.00422814 -0.0920638 10375.9 0 0 0 
0.00585938 0.208984 997.851 0.00225809 0.997817 1000.03 1.03438 997.854 0.00424487 -0.0947253 10343.8 0 0 0 
0.00585938 0.212891 996.134 0.00401801 0.996103 1000.03 1.03116 996.138 0.0042511 -0.0973335 10311.6 0 0 0 
0.00585938 0.216797 994.028 0.00616704 0.994001 1000.03 1.02793 994.034 0.00424891 -0.0998697 10279.3 0 0 0 
0.00585938 0.220703 991.549 0.008685 0.991524 1000.02 1.02467 991.557 0.0042315 -0.102323 10246.7 0 0 0 
0.00585938 0.224609 988.346 0.0119248 0.988325 1000.02 1.0214 988.358 0.00418516 -0.104677 10214 0 0 0 
0.00585938 0.228516 983.158 0.0171645 0.98314 1000.02 1.01808 983.175 0.0040991 -0.106897 10180.8 0 0 0.00668372 
0.00585938 0.232422 971.188 0.0292505 0.971174 1000.01 1.01471 971.217 0.00397549 -0.108889 10147.1 0 0 0.35 
0.00585938 0.236328 941.184 0.0594915 0.941174 1000.01 1.01131 941.244 0.00383817 -0.110449 10113.1 0 0 0.35 
0.00585938 0.240234 863.85 0.137237 0.863843 1000.01 1.00793 863.987 0.00374077 -0.111259 10079.3 0 0 0.35 
0.00585938 0.244141 651.538 0.350143 0.651535 1000 1.00482 651.888 0.00373679 -0.110899 10048.2 0 -8.9287e-05 0.35 
0.00585938 0.248047 324.639 0.677115 0.324638 1000 1.0026 325.316 0.00386244 -0.109253 10026 0 0 0.35 
0.00585938 0.251953 127.735 0.873525 0.127735 1000 1.00144 128.609 0.00411483 -0.107887 10014.4 0 0 0.35 
0.00585938 0.255859 57.0857 0.943787 0.0570856 1000 1.00093 58.0295 0.00446077 -0.107361 10009.3 0 0 0.35 
0.00585938 0.259766 28.4374 0.972199 0.0284374 1000 1.00065 29.4096 0.00478102 -0.107624 10006.5 0 0 0.35 
0.00585938 0.263672 16.5251 0.983967 0.0165251 1000 1.0005 17.509 0.0049539 -0.10843 10005 0 0 0 
0.00585938 0.267578 11.5293 0.98886 0.0115293 1000 1.00039 12.5181 0.0048799 -0.109635 10003.9 0 0 0 
0.00585938 0.271484 8.41912 0.991892 0.00841912 1000 1.00031 9.41101 0.0044726 -0.110942 10003.1 0 0 0 
0.00585938 0.275391 5.94728 0.994304 0.00594728 1000 1.00025 6.94158 0.00370056 -0.112127 10002.5 0 0 0 
0.00585938 0.279297 3.88988 0.996317 0.00388988 1000 1.00021 4.8862 0.00262447 -0.112893 10002.1 0 0 0 
0.00585938 0.283203 2.27114 0.997905 0.00227114 1000 1.00018 3.26905 0.00136825 -0.113064 10001.8 0 0 0 
0.00585938 0.287109 1.12778 0.999028 0.00112778 1000 1.00016 2.12681 7.33112e-05 -0.112518 10001.6 0 0 0.00269931 
0.00585938 0.291016 0.44169 0.999701 0.00044169 1000 1.00014 1.44139 -0.00112692 -0.111244 10001.4 0 0 0.00269931 
0.00585938 0.294922 0.131212 1 0.000131211 1000 1.00013 1.13121 -0.00215795 -0.109291 10001.3 0 0 0 
0.00585938 0.298828 0.0560362 1.00007 5.60362e-05 1000 1.00012 1.0561 -0.00300922 -0.10676 10001.2 0 0 0 
0.00585938 0.302734 0.0398077 1.00008 3.98077e-05 1000 1.00012 1.03988 -0.00367167 -0.103756 10001.2 0 0 0 
0.00585938 0.306641 0.029605 1.00008 2.9605e-05 1000 1.00011 1.02968 -0.00412876 -0.100419 10001.1 0 0 0 
0.00585938 0.310547 0.0226289 1.00008 2.26289e-05 1000 1.0001 1.02271 -0.00438702 -0.0968773 10001 0 0 0 
0.00585938 0.314453 0.0174116 1.00008 1.74116e-05 1000 1.00009 1.01749 -0.00448746 -0.0932516 10000.9 0 0 0 
0.00585938 0.318359 0.0131501 1.00007 1.31501e-05 1000 1.00009 1.01322 -0.00448608 -0.0896248 10000.9 0 0 0 
0.00585938 0.322266 0.00947329 1.00007 9.47329e-06 1000 1.00008 1.00954 -0.00442906 -0.086049 10000.8 0 0 0 
0.00585938 0.326172 0.00633414 1.00006 6.33414e-06 1000 1.00007 1.0064 -0.00434348 -0.0825529 10000.7 0 0 0 
0.00585938 0.330078 0.00387671 1.00006 3.87671e-06 1000 1.00006 1.00394 -0.00424219 -0.0791529 10000.6 0 0 0 
0.00585938 0.333984 0.00225827 1.00005 2.25827e-06 1000 1.00006 1.00231 -0.00413265 -0.0758586 10000.6 0 0 0 
0.00585938 0.337891 0.00147611 1.00005 1.47611e-06 1000 1.00005 1.00152 -0.00402173 -0.0726743 10000.5 0 0 0 
0.00585938 0.341797 0.00126346 1.00004 1.26346e-06 1000 1.00004 1.0013 -0.00391538 -0.0695994 10000.4 0 0 0 
0.00585938 0.345703 0.00119734 1.00003 1.19734e-06 1000 1.00003 1.00123 -0.00381689 -0.0666295 10000.3 0 0 0 
0.00585938 0.349609 0.00114547 1.00002 1.14547e-06 1000 1.00003 1.00117 -0.0037268 -0.0637587 10000.3 0 0 0 
0.00585938 0.353516 0.00110048 1.00002 1.10048e-06 1000 1.00002 1.00112 -0.00364446 -0.0609811 10000.2 0 0 0 
0.00585938 0.357422 0.00106177 1.00001 1.06177e-06 1000 1.00001 1.00107 -0.00356937 -0.0582911 10000.1 0 0 0 
0.00585938 0.361328 0.0010318 1 1.0318e-06 1000 1 1.00104 -0.00350132 -0.0556834 10000 0 0 0 
0.00585938 0.365234 0.00101277 0.999996 1.01277e-06 1000 0.999997 1.00101 -0.00343977 -0.0531536 9999.97 0 -0.000111914 0 
0.00585938 0.369141 0.0010043 0.999989 1.0043e-06 1000 0.99999 1.00099 -0.00338325 -0.0506976 9999.9 0 0 0 
0.00585938 0.373047 0.00100251 0.999982 1.00251e-06 1000 0.999983 1.00098 -0.00332958 -0.048313 9999.83 0 0 0 
0.00585938 0.376953 0.00100206 0.999975 1.00206e-06 1000 0.999976 1.00098 -0.00327652 -0.0459984 9999.76 0 -0.00166391 0 
0.00585938 0.380859 0.00100158 0.999968 1.00158e-06 1000 0.999969 1.00097 -0.00322247 -0.0437536 9999.69 0 -0.0013725 0 
0.00585938 0.384766 0.00100106 0.999961 1.00106e-06 1000 0.999962 1.00096 -0.00316685 -0.0415789 9999.62 0 0 0 
0.00585938 0.388672 0.00100059 0.999955 1.00059e-06 1000 0.999956 1.00096 -0.00310994 -0.0394748 9999.56 0 0 0 
0.00585938 0.392578 0.00100022 0.999948 1.00022e-06 1000 0.999949 1.00095 -0.0030526 -0.0374413 9999.49 0 0 0 
0.00585938 0.396484 0.00100002 0.999942 1.00002e-06 1000 0.999943 1.00094 -0.00299585 -0.0354777 9999.43 0 -3.60247e-05 0 
0.00585938 0.400391 0.000999941 0.999935 9.99941e-07 1000 0.999936 1.00094 -0.00294062 -0.0335824 9999.36 0 0 0 
0.00585938 0.404297 0.000999938 0.999929 9.99939e-07 1000 0.99993 1.00093 -0.00288761 -0.0317531 9999.3 0 -0.000535644 -0.000687101 
0.00585938 0.408203 0.000999953 0.999923 9.99953e-07 1000 0.999924 1.00092 -0.00283725 -0.0299867 9999.24 0 0 -0.000687101 
0.00585938 0.412109 0.000999955 0.999917 9.99955e-07 1000 0.999918 1.00092 -0.00278975 -0.0282802 9999.18 0 0 0 
0.00585938 0.416016 0.00099994 0.999912 9.9994e-07 1000 0.999913 1.00091 -0.00274508 -0.0266304 9999.13 0 0 0 
0.00585938 0.419922 0.000999918 0.999906 9.99918e-07 1000 0.999907 1.00091 -0.00270302 -0.0250342 9999.07 0 0 0 
0.00585938 0.423828 0.000999899 0.9999 9.99899e-07 1000 0.999901 1.0009 -0.00266327 -0.0234888 9999.01 0 -0.000643559 0 
0.00585938 0.427734 0.000999885 0.999895 9.99885e-07 1000 0.999896 1.00089 -0.0026255 -0.0219917 9998.96 0 0 0 
0.00585938 0.431641 0.000999875 0.99989 9.99875e-07 1000 0.999891 1.00089 -0.00258946 -0.0205403 9998.91 0 0 0 
0.00585938 0.435547 0.000999866 0.999885 9.99866e-07 1000 0.999886 1.00088 -0.00255498 -0.0191324 9998.86 0 0 0 
0.00585938 0.439453 0.000999859 0.99988 9.99859e-07 1000 0.999881 1.00088 -0.00252195 -0.0177655 9998.81 0 0 0 
0.00585938 0.443359 0.000999858 0.999875 9.99858e-07 1000 0.999876 1.00088 -0.00249027 -0.0164378 9998.76 0 0 0 
0.00585938 0.447266 0.000999864 0.999871 9.99864e-07 1000 0.999872 1.00087 -0.00245988 -0.0151468 9998.72 0 0 0.000193952 
0.00585938 0.451172 0.00099988 0.999866 9.9988e-07 1000 0.999867 1.00087 -0.00243076 -0.0138908 9998.67 0 0 -0.00175902 
0.00585938 0.455078 0.000999902 0.999862 9.99903e-07 1000 0.999863 1.00086 -0.00240304 -0.0126669 9998.63 0 0 -0.000540406 
0.00585938 0.458984 0.000999929 0.999858 9.99929e-07 1000 0.999859 1.00086 -0.00237702 -0.0114739 9998.59 0 0 0.00141257 
0.00585938 0.462891 0.000999954 0.999854 9.99954e-07 1000 0.999855 1.00085 -0.00235315 -0.0103068 9998.55 0 -0.00101234 -0.000495148 
0.00585938 0.466797 0.000999973 0.99985 9.99973e-07 1000 0.999851 1.00085 -0.00233196 -0.00916666 9998.51 0 0.00107721 -0.000495148 
0.00585938 0.470703 0.00099998 0.999846 9.9998e-07 1000 0.999847 1.00085 -0.00231397 -0.00804386 9998.47 0 -0.000935289 0.000479931 
0.00585938 0.474609 0.00099997 0.999843 9.9997e-07 1000 0.999844 1.00084 -0.00229957 -0.0069462 9998.44 0 0 0.000479931 
0.00585938 0.478516 0.000999937 0.99984 9.99938e-07 1000 0.999841 1.00084 -0.00228893 -0.005852 9998.41 0 0 -0.000618027 
0.00585938 0.482422 0.000999881 0.999836 9.99881e-07 1000 0.999837 1.00084 -0.00228185 -0.00479079 9998.37 0 0 -0.000618027 
0.00585938 0.486328 0.000999802 0.999833 9.99802e-07 1000 0.999834 1.00083 -0.0022778 -0.00370683 9998.34 0 0 0 
0.00585938 0.490234 0.000999712 0.99983 9.99712e-07 1000 0.999831 1.00083 -0.00227596 -0.0026988 9998.31 0 0 0 
0.00585938 0.494141 0.000999632 0.999828 9.99633e-07 1000 0.999829 1.00083 -0.00227546 -0.00159793 9998.29 0 0 0 
0.00585938 0.498047 0.000999584 0.999825 9.99584e-07 1000 0.999826 1.00082 -0.00227556 -0.000701143 9998.26 0 0 0 
0.00976562 0.00195312 1000.19 9.32358e-07 0.999999 1000.19 1.18782 1000.19 0.00373264 -0.000813394 11878.2 0 0 0 
0.00976562 0.00585938 1000.18 9.44193e-07 0.999999 1000.18 1.1847 1000.18 0.00373284 -0.00195468 11847 0 0 0 
0.00976562 0.00976562 1000.18 9.83115e-07 0.999999 1000.18 1.18292 1000.18 0.00373421 -0.00327432 11829.2 0 0 0 
0.00976562 0.0136719 1000.18 1.02512e-06 0.999999 1000.18 1.1802 1000.18 0.00373778 -0.00452022 11802 0 0 0 
0.00976562 0.0175781 1000.18 1.041e-06 0.999999 1000.18 1.17788 1000.18 0.00374437 -0.0058293 11778.8 0 0 0 
0.00976562 0.0214844 1000.17 1.03527e-06 0.999999 1000.18 1.17524 1000.17 0.0037544 -0.00711645 11752.4 0 0 0 
0.00976562 0.0253906 1000.17 1.02604e-06 0.999999 1000.17 1.17273 1000.17 0.00376785 -0.00842715 11727.3 0 0 0 
0.00976562 0.0292969 1000.17 1.01694e-06 0.999999 1000.17 1.17011 1000.17 0.00378437 -0.00973534 11701.1 0 0 0 
0.00976562 0.0332031 1000.17 1.00897e-06 0.999999 1000.17 1.16753 1000.17 0.00380341 -0.0110575 11675.3 0 0 0 
0.00976562 0.0371094 1000.16 1.0028e-06 0.999999 1000.16 1.1649 1000.16 0.00382445 -0.0123855 11649 0 0 0 
0.00976562 0.0410156 1000.16 9.98728e-07 0.999999 1000.16 1.16227 1000.16 0.0038471 -0.0137253 11622.7 0 0 0 