TITLE=FvSolution
VARIABLES=X Y RHO1Z1 RHO2Z2 Z1 RHO1 RHO2 RHO U V PRE theta lambdaX lambdaY 
ZONE T=TA, I=128, J=128, DATAPACKING = POINT
0.00195312 0.00195312 1000.16 5.9034e-07 0.999999 1000.16 1.16104 1000.16 -0.000282412 0.000136081 11610.4 0 0 0 
0.00195312 0.00585938 1000.16 6.31644e-07 0.999999 1000.16 1.15781 1000.16 -0.000262181 0.000903614 11578.1 0 0 0 
0.00195312 0.00976562 1000.16 7.18181e-07 0.999999 1000.16 1.15587 1000.16 -0.000231416 0.00141735 11558.7 0 0 0 
0.00195312 0.0136719 1000.15 8.42271e-07 0.999999 1000.15 1.15319 1000.15 -0.000203336 0.0019389 11531.9 0 0 0 
0.00195312 0.0175781 1000.15 9.90191e-07 0.999999 1000.15 1.15094 1000.15 -0.000184923 0.00236401 11509.4 0 0 0 
0.00195312 0.0214844 1000.15 1.14486e-06 0.999999 1000.15 1.14843 1000.15 -0.000176975 0.00278712 11484.3 0 0 0 
0.00195312 0.0253906 1000.14 1.28605e-06 0.999999 1000.15 1.14609 1000.14 -0.000176945 0.00318694 11460.9 0 0 0 
0.00195312 0.0292969 1000.14 1.39147e-06 0.999999 1000.14 1.14366 1000.14 -0.000181532 0.00359983 11436.6 0 0 0 
0.00195312 0.0332031 1000.14 1.43893e-06 0.999999 1000.14 1.14129 1000.14 -0.000188083 0.00401861 11412.9 0 0 0 
0.00195312 0.0371094 1000.14 1.4102e-06 0.999999 1000.14 1.13891 1000.14 -0.000194832 0.00445341 11389.1 0 0 0 
0.00195312 0.0410156 1000.14 1.296e-06 0.999999 1000.14 1.13655 1000.14 -0.000200522 0.00489876 11365.5 0 0 0 
0.00195312 0.0449219 1000.13 1.10113e-06 0.999999 1000.13 1.13419 1000.13 -0.000204009 0.00535416 11341.9 0 0 0 
0.00195312 0.0488281 1000.13 8.48031e-07 0.999999 1000.13 1.13184 1000.13 -0.000204197 0.00581255 11318.4 0 0 0 
0.00195312 0.0527344 1000.13 5.7733e-07 0.999999 1000.13 1.1295 1000.13 -0.000200322 0.00626745 11295 0 0 0 
0.00195312 0.0566406 1000.13 3.44127e-07 1 1000.13 1.12717 1000.13 -0.000192447 0.00671015 11271.7 0 0 0 
0.00195312 0.0605469 1000.12 2.09602e-07 1 1000.12 1.12485 1000.12 -0.000181905 0.00713414 11248.5 0 0 0 
0.00195312 0.0644531 1000.12 2.28827e-07 1 1000.12 1.12254 1000.12 -0.000171463 0.00753651 11225.4 0 0 0 
0.00195312 0.0683594 1000.12 4.36813e-07 1 1000.12 1.12024 1000.12 -0.000164948 0.00792129 11202.4 0 0 0 
0.00195312 0.0722656 1000.12 8.35902e-07 0.999999 1000.12 1.11795 1000.12 -0.000166242 0.00830005 11179.5 0 0 0 
0.00195312 0.0761719 1000.11 1.38796e-06 0.999999 1000.12 1.11568 1000.11 -0.000177877 0.00869116 11156.8 0 0 0 
0.00195312 0.0800781 1000.11 2.0144e-06 0.999998 1000.11 1.11341 1000.11 -0.000199872 0.00911529 11134.1 0 0 0 
0.00195312 0.0839844 1000.11 2.60582e-06 0.999998 1000.11 1.11116 1000.11 -0.000229389 0.00959106 11111.6 0 0 0 
0.00195312 0.0878906 1000.11 3.04068e-06 0.999997 1000.11 1.10891 1000.11 -0.000261223 0.010128 11089.1 0 0 0 
0.00195312 0.0917969 1000.1 3.21086e-06 0.999997 1000.11 1.10669 1000.1 -0.000288796 0.0107256 11066.9 0 0 0 
0.00195312 0.0957031 1000.1 3.04916e-06 0.999997 1000.1 1.10446 1000.1 -0.00030554 0.0113666 11044.6 0 0 0 
0.00195312 0.0996094 1000.1 2.5537e-06 0.999998 1000.1 1.10226 1000.1 -0.000306833 0.0120279 11022.6 0 0 0 
0.00195312 0.103516 1000.1 1.80368e-06 0.999998 1000.1 1.10005 1000.1 -0.000292258 0.0126711 11000.5 0 0 0 
0.00195312 0.107422 1000.1 9.62729e-07 0.999999 1000.1 1.09793 1000.1 -0.000267124 0.0132763 10979.3 0 0 0 
0.00195312 0.111328 1000.1 2.6879e-07 1 1000.1 1.09585 1000.1 -0.000241966 0.013804 10958.5 0 0 0 
0.00195312 0.115234 1000.09 1.14221e-08 1 1000.09 1.09426 1000.09 -0.000229953 0.0142836 10942.6 1 0 0 
0.00195312 0.119141 1000.09 5.01797e-07 1 1000.09 1.09122 1000.09 -0.000242498 0.0148581 10912.2 0 0 0 
0.00195312 0.123047 1000.09 2.4019e-06 0.999998 1000.09 1.08937 1000.09 -0.000276528 0.0153947 10893.7 0 0 0 
0.00195312 0.126953 1000.08 6.01143e-06 0.999994 1000.09 1.08712 1000.08 -0.00032311 0.0160566 10871.2 0 0 0 
0.00195312 0.130859 1000.07 1.12547e-05 0.99999 1000.09 1.08515 1000.07 -0.000371585 0.0167847 10851.5 0 0 0 
0.00195312 0.134766 1000.07 1.77066e-05 0.999984 1000.08 1.08303 1000.07 -0.000412259 0.0176182 10830.3 0 0 0 
0.00195312 0.138672 1000.06 2.46608e-05 0.999977 1000.08 1.08102 1000.06 -0.00043903 0.0185097 10810.2 0 0 0 
0.00195312 0.142578 1000.05 3.12665e-05 0.999971 1000.08 1.07897 1000.05 -0.000450252 0.0194442 10789.7 0 0 0 
0.00195312 0.146484 1000.04 3.67261e-05 0.999966 1000.08 1.07698 1000.04 -0.000448268 0.020384 10769.8 0 0 0 
0.00195312 0.150391 1000.04 4.05468e-05 0.999962 1000.07 1.07499 1000.04 -0.000438028 0.021312 10749.9 0 0 0 
0.00195312 0.154297 1000.03 4.28067e-05 0.99996 1000.07 1.07303 1000.03 -0.000425421 0.0222149 10730.3 0 0 0 
0.00195312 0.158203 1000.03 4.43875e-05 0.999959 1000.07 1.07109 1000.03 -0.000415838 0.0230949 10710.9 0 0 0 
0.00195312 0.162109 1000.03 4.7109e-05 0.999956 1000.07 1.06918 1000.03 -0.000413188 0.0239614 10691.8 0 0 0 
0.00195312 0.166016 1000.02 5.37134e-05 0.99995 1000.07 1.0673 1000.02 -0.00041943 0.0248311 10673 0 0 0 
0.00195312 0.169922 1000 6.76703e-05 0.999936 1000.07 1.06544 1000 -0.000434525 0.025722 10654.4 0 0 0 
0.00195312 0.173828 999.976 9.28217e-05 0.999913 1000.06 1.06361 999.976 -0.00045675 0.0266508 10636.1 0 0 0 
0.00195312 0.177734 999.937 0.000132946 0.999875 1000.06 1.06181 999.937 -0.000483225 0.0276294 10618.1 0 0 0 
0.00195312 0.181641 999.879 0.000191403 0.999819 1000.06 1.06004 999.88 -0.000510547 0.0286636 10600.4 0 0 0 
0.00195312 0.185547 999.802 0.000271125 0.999744 1000.06 1.05831 999.802 -0.000535393 0.0297525 10583.1 0 0 0 
0.00195312 0.189453 999.701 0.000375374 0.999645 1000.06 1.05661 999.702 -0.000555045 0.030889 10566.1 0 0 0 
0.00195312 0.193359 999.572 0.000509844 0.999517 1000.05 1.05495 999.572 -0.000567765 0.032062 10549.5 0 0 0 
0.00195312 0.197266 999.401 0.000686877 0.999348 1000.05 1.05334 999.402 -0.00057303 0.0332583 10533.4 0 0 0 
0.00195312 0.201172 999.165 0.000932614 0.999113 1000.05 1.05176 999.166 -0.000571584 0.0344656 10517.6 0 0 0 
0.00195312 0.205078 998.814 0.00129776 0.998764 1000.05 1.05024 998.816 -0.000565274 0.0356758 10502.4 0 0 0 
0.00195312 0.208984 998.263 0.00187247 0.998215 1000.05 1.04876 998.265 -0.000556742 0.0368881 10487.6 0 0 0 
0.00195312 0.212891 997.369 0.0028048 0.997322 1000.05 1.04733 997.372 -0.000549049 0.0381116 10473.3 0 0 0 
0.00195312 0.216797 995.922 0.00431377 0.995876 1000.05 1.04596 995.926 -0.000545249 0.039369 10459.6 0 0 0 
0.00195312 0.220703 993.669 0.00665943 0.993625 1000.04 1.04464 993.676 -0.000547879 0.0406972 10446.4 0 0 0 
0.00195312 0.224609 990.415 0.0100451 0.990372 1000.04 1.04338 990.425 -0.000558368 0.0421461 10433.8 0 0 0 
0.00195312 0.228516 986.098 0.0145314 0.986057 1000.04 1.04217 986.113 -0.000576545 0.0437694 10421.7 0 0 0 
0.00195312 0.232422 980.793 0.0200372 0.980752 1000.04 1.04102 980.813 -0.000600497 0.0456137 10410.2 0 0 0 
0.00195312 0.236328 974.646 0.0264064 0.974607 1000.04 1.03991 974.672 -0.000626941 0.0477072 10399.1 0 0 0 
0.00195312 0.240234 967.737 0.033555 0.9677 1000.04 1.03884 967.771 -0.000652118 0.0500551 10388.4 0 0 0 
0.00195312 0.244141 959.781 0.0417761 0.959745 1000.04 1.03779 959.823 -0.000673097 0.0526429 10377.9 0 0 0 
0.00195312 0.248047 949.694 0.0521912 0.949659 1000.04 1.03675 949.746 -0.000689136 0.0554561 10367.5 0 0 0 
0.00195312 0.251953 935.028 0.0673245 0.934995 1000.04 1.03568 935.095 -0.000702734 0.0585101 10356.8 0 0 0 
0.00195312 0.255859 911.136 0.0919661 0.911104 1000.03 1.03454 911.228 -0.000719369 0.0618791 10345.4 0 0 0 
0.00195312 0.259766 871.473 0.132832 0.871444 1000.03 1.03326 871.605 -0.000745935 0.0657261 10332.6 0 0 0 
0.00195312 0.263672 811.751 0.194245 0.811725 1000.03 1.03171 811.945 -0.00078754 0.0702555 10317.1 0 0 0 
0.00195312 0.267578 732.957 0.275013 0.732936 1000.03 1.02976 733.232 -0.000845338 0.0756811 10297.6 0 0 0 
0.00195312 0.271484 639.557 0.370291 0.639539 1000.03 1.02727 639.927 -0.000915863 0.0821878 10272.7 0 0 0 
0.00195312 0.275391 537.519 0.473677 0.537506 1000.02 1.02418 537.992 -0.00098962 0.0898166 10241.8 0 0 0 
0.00195312 0.279297 433.466 0.57823 0.433457 1000.02 1.02063 434.044 -0.00105427 0.0983318 10206.3 0 0 0 
0.00195312 0.283203 334.154 0.677156 0.334149 1000.02 1.01698 334.831 -0.00110176 0.107145 10169.8 0 0 0 
0.00195312 0.287109 245.907 0.764381 0.245903 1000.01 1.01364 246.671 -0.00112966 0.115538 10136.4 0 0 0 
0.00195312 0.291016 173.965 0.83501 0.173963 1000.01 1.01086 174.8 -0.00113619 0.123119 10108.6 0 0 0 
0.00195312 0.294922 121.457 0.886188 0.121456 1000.01 1.0087 122.343 -0.00112828 0.129867 10087 0 0 0 
0.00195312 0.298828 87.5369 0.918901 0.0875362 1000.01 1.00705 88.4558 -0.00112349 0.135807 10070.5 0 0 0 
0.00195312 0.302734 66.9825 0.938393 0.0669821 1000.01 1.00576 67.9209 -0.00113212 0.141097 10057.6 0 0 0 
0.00195312 0.306641 53.897 0.950547 0.0538967 1000 1.0047 54.8475 -0.00114654 0.145889 10047 0 0 0 
0.00195312 0.310547 44.487 0.959138 0.0444868 1000 1.00379 45.4461 -0.0011492 0.150253 10037.9 0 0 0 
0.00195312 0.314453 36.7865 0.966125 0.0367864 1000 1.00302 37.7526 -0.00112303 0.154214 10030.2 0 0 0 
0.00195312 0.318359 29.9511 0.97235 0.029951 1000 1.00237 30.9234 -0.00105269 0.157744 10023.7 0 0 0 
0.00195312 0.322266 23.772 0.978021 0.0237719 1000 1.00184 24.75 -0.000922386 0.160789 10018.4 0 0 0 
0.00195312 0.326172 18.2974 0.983085 0.0182974 1000 1.00141 19.2805 -0.000719739 0.163265 10014.1 0 0 0 
0.00195312 0.330078 13.6152 0.987448 0.0136152 1000 1.00108 14.6027 -0.000442741 0.16507 10010.8 0 0 0 
0.00195312 0.333984 9.774 0.991048 0.00977399 1000 1.00083 10.765 -9.0147e-05 0.166101 10008.3 0 0 0 
0.00195312 0.337891 6.76584 0.993879 0.00676583 1000 1.00065 7.75972 0.000335387 0.166249 10006.5 0 0 0 
0.00195312 0.341797 4.52597 0.995992 0.00452597 1000 1.00052 5.52197 0.000793375 0.165436 10005.2 0 0 0 
0.00195312 0.345703 2.93988 0.997489 0.00293988 1000 1.00043 3.93737 0.00126369 0.163641 10004.3 0 0 0 
0.00195312 0.349609 1.86453 0.9985 0.00186453 1000 1.00037 2.86303 0.00172941 0.160868 10003.7 0 0 0 
0.00195312 0.353516 1.15939 0.999159 0.00115939 1000 1.00032 2.15855 0.00216834 0.157159 10003.2 0 0 0 
0.00195312 0.357422 0.709037 0.999574 0.000709037 1000 1.00028 1.70861 0.00255694 0.1526 10002.8 0 0 0 
0.00195312 0.361328 0.42859 0.999827 0.00042859 1000 1.00026 1.42842 0.00287337 0.147318 10002.6 0 0 0 
0.00195312 0.365234 0.258949 0.999973 0.000258949 1000 1.00023 1.25892 0.0031018 0.141477 10002.3 0 0 0 
0.00195312 0.369141 0.159892 1.00005 0.000159892 1000 1.00021 1.15994 0.00323505 0.135263 10002.1 0 0 0 
0.00195312 0.373047 0.104298 1.00009 0.000104298 1000 1.00019 1.10439 0.0032742 0.128868 10001.9 0 0 0 
0.00195312 0.376953 0.0740418 1.0001 7.40418e-05 1000 1.00018 1.07414 0.00322618 0.122472 10001.8 0 0 0 
0.00195312 0.380859 0.0572668 1.0001 5.72668e-05 1000 1.00016 1.05737 0.00310245 0.116244 10001.6 0 0 0 
0.00195312 0.384766 0.0466118 1.0001 4.66118e-05 1000 1.00015 1.04671 0.00291993 0.11031 10001.5 0 0 0 
0.00195312 0.388672 0.0379898 1.00009 3.79898e-05 1000 1.00013 1.03808 0.0027027 0.104779 10001.3 0 0 0 
0.00195312 0.392578 0.0296467 1.00009 2.96467e-05 1000 1.00012 1.02974 0.00248143 0.0996633 10001.2 0 0 0 
0.00195312 0.396484 0.0213483 1.00008 2.13483e-05 1000 1.00011 1.02143 0.00228833 0.0949866 10001.1 0 0 0 
0.00195312 0.400391 0.0136581 1.00008 1.36581e-05 1000 1.00009 1.01374 0.00214615 0.090583 10000.9 0 0 0 
0.00195312 0.404297 0.0073433 1.00007 7.3433e-06 1000 1.00008 1.00742 0.00205721 0.0864851 10000.8 0 0 0 
0.00195312 0.408203 0.00295967 1.00007 2.95967e-06 1000 1.00007 1.00303 0.0020044 0.0823457 10000.7 0 0 0 
0.00195312 0.412109 0.00063598 1.00006 6.3598e-07 1000 1.00006 1.0007 0.00197083 0.0785375 10000.6 0 0 0 
0.00195312 0.416016 1.78344e-05 1.00004 1.78344e-08 999.999 1.00004 1.00006 0.00195545 0.0742988 10000.4 1 0 0 
0.00195312 0.419922 0.000296679 1.00004 2.96679e-07 1000 1.00004 1.00033 0.00195687 0.0706384 10000.4 0 0 0 
0.00195312 0.423828 0.000978761 1.00003 9.78761e-07 1000 1.00003 1.00101 0.00196741 0.0668353 10000.3 0 0 0 
0.00195312 0.427734 0.00165384 1.00002 1.65384e-06 1000 1.00002 1.00167 0.00198081 0.0629066 10000.2 0 0 0 
0.00195312 0.431641 0.00205377 1.00001 2.05377e-06 1000 1.00001 1.00206 0.00198688 0.0589535 10000.1 0 0 0 
0.00195312 0.435547 0.00208473 1 2.08473e-06 1000 1 1.00209 0.00197395 0.0549915 10000 0 0 0 
0.00195312 0.439453 0.00180985 0.999994 1.80985e-06 1000 0.999996 1.0018 0.00193568 0.051081 9999.96 0 0 0 
0.00195312 0.443359 0.00138564 0.999987 1.38564e-06 1000 0.999989 1.00137 0.00187507 0.0472627 9999.89 0 0 0 
0.00195312 0.447266 0.00098109 0.999981 9.8109e-07 1000 0.999982 1.00096 0.00180268 0.0435764 9999.82 0 0 0 
0.00195312 0.451172 0.000713856 0.999974 7.13856e-07 1000 0.999975 1.00069 0.00173131 0.0400296 9999.75 0 0 0 
0.00195312 0.455078 0.00062371 0.999968 6.2371e-07 1000 0.999969 1.00059 0.00167102 0.0366123 9999.69 0 0 0 
0.00195312 0.458984 0.000682481 0.999962 6.82481e-07 1000 0.999963 1.00064 0.00162672 0.0332948 9999.63 0 0 0 
0.00195312 0.462891 0.000824752 0.999956 8.24752e-07 1000 0.999957 1.00078 0.00159816 0.0300477 9999.57 0 0 0 
0.00195312 0.466797 0.000980759 0.999951 9.80759e-07 1000 0.999952 1.00093 0.00158179 0.0268395 9999.52 0 0 0 
0.00195312 0.470703 0.00109909 0.999946 1.09909e-06 1000 0.999947 1.00104 0.00157301 0.0236569 9999.47 0 0 0 
0.00195312 0.474609 0.00115552 0.999941 1.15552e-06 1000 0.999942 1.0011 0.00156791 0.0204788 9999.42 0 0 0 
0.00195312 0.478516 0.00115078 0.999937 1.15078e-06 1000 0.999938 1.00109 0.00156399 0.0173183 9999.38 0 0 0 
0.00195312 0.482422 0.00110234 0.999933 1.10234e-06 1000 0.999934 1.00103 0.00156009 0.0141435 9999.34 0 0 0 
0.00195312 0.486328 0.00103464 0.999929 1.03464e-06 1000 0.99993 1.00096 0.0015561 0.0110056 9999.3 0 0 0 
0.00195312 0.490234 0.000970781 0.999926 9.70781e-07 1000 0.999927 1.0009 0.00155248 0.00781055 9999.27 0 0 0 
0.00195312 0.494141 0.000926696 0.999923 9.26696e-07 1000 0.999924 1.00085 0.00154989 0.00471033 9999.24 0 0 0 
0.00195312 0.498047 0.000907862 0.99992 9.07862e-07 1000 0.999921 1.00083 0.00154874 0.00139691 9999.21 0 0 0 
0.00585938 0.00195312 1000.16 5.91216e-07 0.999999 1000.16 1.16091 1000.16 -0.000827042 0.000125585 11609.1 0 0 0 
0.00585938 0.00585938 1000.16 6.32703e-07 0.999999 1000.16 1.15767 1000.16 -0.000767517 0.000875858 11576.7 0 0 0 
0.00585938 0.00976562 1000.16 7.19509e-07 0.999999 1000.16 1.15573 1000.16 -0.000680446 0.00138137 11557.3 0 0 0 
0.00585938 0.0136719 1000.15 8.43873e-07 0.999999 1000.15 1.15305 1000.15 -0.000601013 0.00190414 11530.5 0 0 0 
0.00585938 0.0175781 1000.15 9.92047e-07 0.999999 1000.15 1.1508 1000.15 -0.000548357 0.00233692 11508 0 0 0 
0.00585938 0.0214844 1000.15 1.14694e-06 0.999999 1000.15 1.1483 1000.15 -0.000524806 0.00276972 11483 0 0 0 
0.00585938 0.0253906 1000.14 1.28833e-06 0.999999 1000.15 1.14595 1000.14 -0.000523588 0.00317783 11459.5 0 0 0 
0.00585938 0.0292969 1000.14 1.39389e-06 0.999999 1000.14 1.14353 1000.14 -0.000535818 0.0035962 11435.3 0 0 0 
0.00585938 0.0332031 1000.14 1.44141e-06 0.999999 1000.14 1.14116 1000.14 -0.000554181 0.00401779 11411.6 0 0 0 
0.00585938 0.0371094 1000.14 1.41262e-06 0.999999 1000.14 1.13877 1000.14 -0.000573576 0.00445354 11387.7 0 0 0 
0.00585938 0.0410156 1000.14 1.29823e-06 0.999999 1000.14 1.13641 1000.14 -0.000590148 0.0048988 11364.1 0 0 0 
0.00585938 0.0449219 1000.13 1.10303e-06 0.999999 1000.13 1.13405 1000.13 -0.000600316 0.00535355 11340.5 0 0 0 
0.00585938 0.0488281 1000.13 8.49512e-07 0.999999 1000.13 1.1317 1000.13 -0.000600706 0.00581091 11317 0 0 0 
0.00585938 0.0527344 1000.13 5.78367e-07 0.999999 1000.13 1.12936 1000.13 -0.000589061 0.00626451 11293.6 0 0 0 
0.00585938 0.0566406 1000.13 3.44786e-07 1 1000.13 1.12704 1000.13 -0.000565681 0.00670584 11270.4 0 0 0 
0.00585938 0.0605469 1000.12 2.10053e-07 1 1000.12 1.12472 1000.12 -0.000534664 0.00712887 11247.2 0 0 0 
0.00585938 0.0644531 1000.12 2.29327e-07 1 1000.12 1.12241 1000.12 -0.000504232 0.00753123 11224.1 0 0 0 
0.00585938 0.0683594 1000.12 4.37682e-07 1 1000.12 1.12011 1000.12 -0.00048552 0.00791733 11201.1 0 0 0 
0.00585938 0.0722656 1000.12 8.37474e-07 0.999999 1000.12 1.11782 1000.12 -0.000489692 0.0082985 11178.2 0 0 0 
0.00585938 0.0761719 1000.11 1.39053e-06 0.999999 1000.12 1.11554 1000.11 -0.00052411 0.00869238 11155.4 0 0 0 
0.00585938 0.0800781 1000.11 2.01815e-06 0.999998 1000.11 1.11327 1000.11 -0.000589055 0.00911882 11132.7 0 0 0 
0.00585938 0.0839844 1000.11 2.61074e-06 0.999998 1000.11 1.11102 1000.11 -0.000676484 0.00959597 11110.2 0 0 0 
0.00585938 0.0878906 1000.11 3.04655e-06 0.999997 1000.11 1.10877 1000.11 -0.000771087 0.0101333 11087.7 0 0 0 
0.00585938 0.0917969 1000.1 3.21721e-06 0.999997 1000.11 1.10654 1000.1 -0.000853104 0.0107303 11065.4 0 0 0 
0.00585938 0.0957031 1000.1 3.05537e-06 0.999997 1000.1 1.10431 1000.1 -0.000902675 0.0113697 11043.1 0 0 0 
0.00585938 0.0996094 1000.1 2.55908e-06 0.999998 1000.1 1.10212 1000.1 -0.000905833 0.012028 11021.2 0 0 0 
0.00585938 0.103516 1000.1 1.80761e-06 0.999998 1000.1 1.0999 1000.1 -0.00086141 0.0126668 10999 0 0 0 
0.00585938 0.107422 1000.1 9.64892e-07 0.999999 1000.1 1.09779 1000.1 -0.00078583 0.0132667 10977.9 0 0 0 
0.00585938 0.111328 1000.1 2.69384e-07 1 1000.1 1.09571 1000.1 -0.000712652 0.0137901 10957.1 0 0 0 
0.00585938 0.115234 1000.09 1.14635e-08 1 1000.09 1.09413 1000.09 -0.00068198 0.0142685 10941.3 1 0 0 
0.00585938 0.119141 1000.09 5.03421e-07 1 1000.09 1.09108 1000.09 -0.000715029 0.0148449 10910.8 0 0 0 
0.00585938 0.123047 1000.09 2.41006e-06 0.999998 1000.09 1.08923 1000.09 -0.000814545 0.0153791 10892.3 0 0 0 
0.00585938 0.126953 1000.08 6.03205e-06 0.999994 1000.09 1.08697 1000.08 -0.000954122 0.0160375 10869.7 0 0 0 
0.00585938 0.130859 1000.07 1.12928e-05 0.99999 1000.08 1.085 1000.07 -0.00109973 0.0167623 10850 0 0 0 
0.00585938 0.134766 1000.07 1.77652e-05 0.999984 1000.08 1.08288 1000.07 -0.00122202 0.0175931 10828.8 0 0 0 
0.00585938 0.138672 1000.06 2.47392e-05 0.999977 1000.08 1.08087 1000.06 -0.00130266 0.0184829 10808.7 0 0 0 
0.00585938 0.142578 1000.05 3.13606e-05 0.999971 1000.08 1.07882 1000.05 -0.00133666 0.0194167 10788.2 0 0 0 
0.00585938 0.146484 1000.04 3.68283e-05 0.999966 1000.08 1.07683 1000.04 -0.00133099 0.0203567 10768.3 0 0 0 
0.00585938 0.150391 1000.04 4.06475e-05 0.999962 1000.07 1.07484 1000.04 -0.0013004 0.0212859 10748.4 0 0 0 
0.00585938 0.154297 1000.03 4.28963e-05 0.99996 1000.07 1.07288 1000.03 -0.00126247 0.0221901 10728.8 0 0 0 
0.00585938 0.158203 1000.03 4.44588e-05 0.999958 1000.07 1.07094 1000.03 -0.00123331 0.0230713 10709.4 0 0 0 
0.00585938 0.162109 1000.02 4.71599e-05 0.999956 1000.07 1.06903 1000.02 -0.00122465 0.023938 10690.3 0 0 0 
0.00585938 0.166016 1000.02 5.37495e-05 0.99995 1000.07 1.06714 1000.02 -0.00124242 0.0248066 10671.4 0 0 0 
0.00585938 0.169922 1000 6.77061e-05 0.999936 1000.07 1.06528 1000 -0.00128656 0.0256945 10652.8 0 0 0 
0.00585938 0.173828 999.976 9.28811e-05 0.999913 1000.06 1.06345 999.976 -0.00135193 0.0266183 10634.5 0 0 0 
0.00585938 0.177734 999.936 0.000133061 0.999875 1000.06 1.06165 999.936 -0.00142989 0.0275898 10616.5 0 0 0 
0.00585938 0.181641 999.879 0.000191612 0.999819 1000.06 1.05989 999.879 -0.0015102 0.0286149 10598.9 0 0 0 
0.00585938 0.185547 999.802 0.000271471 0.999743 1000.06 1.05816 999.802 -0.00158293 0.0296929 10581.6 0 0 0 
0.00585938 0.189453 999.701 0.000375909 0.999644 1000.06 1.05647 999.701 -0.00164003 0.0308172 10564.7 0 0 0 
0.00585938 0.193359 999.571 0.000510648 0.999516 1000.05 1.05481 999.571 -0.0016765 0.0319774 10548.1 0 0 0 
0.00585938 0.197266 999.4 0.000688092 0.999347 1000.05 1.0532 999.401 -0.00169094 0.0331608 10532 0 0 0 
0.00585938 0.201172 999.163 0.000934488 0.999111 1000.05 1.05163 999.164 -0.00168562 0.034356 10516.3 0 0 0 
0.00585938 0.205078 998.811 0.00130071 0.998761 1000.05 1.05011 998.813 -0.00166601 0.0355558 10501.1 0 0 0 
0.00585938 0.208984 998.258 0.00187715 0.99821 1000.05 1.04863 998.26 -0.00163983 0.0367601 10486.3 0 0 0 
0.00585938 0.212891 997.362 0.00281212 0.997315 1000.05 1.04721 997.365 -0.00161592 0.0379789 10472.1 0 0 0 
0.00585938 0.216797 995.911 0.00432468 0.995865 1000.05 1.04584 995.915 -0.00160295 0.039235 10458.4 0 0 0 
0.00585938 0.220703 993.654 0.00667435 0.99361 1000.04 1.04452 993.661 -0.00160794 0.0405654 10445.2 0 0 0 
0.00585938 0.224609 990.397 0.0100633 0.990354 1000.04 1.04326 990.407 -0.00163467 0.0420188 10432.6 0 0 0 
0.00585938 0.228516 986.078 0.0145512 0.986036 1000.04 1.04206 986.092 -0.00168244 0.0436475 10420.6 0 0 0 
0.00585938 0.232422 980.772 0.0200568 0.980731 1000.04 1.0409 980.792 -0.00174563 0.0454961 10409 0 0 0 
0.00585938 0.236328 974.625 0.0264247 0.974587 1000.04 1.03979 974.652 -0.0018148 0.047592 10397.9 0 0 0 
0.00585938 0.240234 967.715 0.0335736 0.967678 1000.04 1.03872 967.749 -0.0018791 0.04994 10387.2 0 0 0 
0.00585938 0.244141 959.751 0.041802 0.959715 1000.04 1.03766 959.793 -0.00192991 0.0525265 10376.6 0 0 0 
0.00585938 0.248047 949.64 0.0522395 0.949606 1000.04 1.03661 949.693 -0.00196419 0.0553391 10366.1 0 0 0 
0.00585938 0.251953 934.925 0.0674216 0.934892 1000.04 1.03554 934.993 -0.00198728 0.0583952 10355.4 0 0 0 
0.00585938 0.255859 910.945 0.0921498 0.910914 1000.03 1.03439 911.038 -0.00201157 0.0617701 10343.9 0 0 0 
0.00585938 0.259766 871.172 0.133123 0.871143 1000.03 1.03311 871.305 -0.00205334 0.0656254 10331.1 0 0 0 
0.00585938 0.263672 811.36 0.19462 0.811334 1000.03 1.03156 811.554 -0.00212732 0.0701628 10315.6 0 0 0 
0.00585938 0.267578 732.513 0.275429 0.732491 1000.03 1.02961 732.788 -0.00223986 0.07559 10296.1 0 0 0 
0.00585938 0.271484 639.09 0.370716 0.639072 1000.03 1.02712 639.46 -0.00238972 0.0820876 10271.2 0 0 0 
0.00585938 0.275391 537.05 0.474092 0.537037 1000.02 1.02404 537.524 -0.00256362 0.0896999 10240.4 0 0 0 
0.00585938 0.279297 433.012 0.578627 0.433004 1000.02 1.02051 433.591 -0.00273848 0.0981965 10205.1 0 0 0 
0.00585938 0.283203 333.73 0.677527 0.333724 1000.02 1.01689 334.407 -0.00289271 0.106993 10168.9 0 0 0 
0.00585938 0.287109 245.527 0.764715 0.245523 1000.01 1.01357 246.292 -0.00301068 0.115378 10135.7 0 0 0 
0.00585938 0.291016 173.65 0.83529 0.173648 1000.01 1.01082 174.485 -0.00307846 0.12296 10108.2 0 0 0 
0.00585938 0.294922 121.223 0.886396 0.121222 1000.01 1.00867 122.11 -0.00311209 0.129714 10086.7 0 0 0 
0.00585938 0.298828 87.3809 0.919037 0.0873803 1000.01 1.00703 88.3 -0.0031499 0.135673 10070.3 0 0 0 
0.00585938 0.302734 66.8795 0.938481 0.0668791 1000.01 1.00574 67.8179 -0.00320952 0.140992 10057.4 0 0 0 
0.00585938 0.306641 53.8228 0.950609 0.0538225 1000 1.00468 54.7734 -0.00326822 0.145809 10046.8 0 0 0 
0.00585938 0.310547 44.4278 0.959187 0.0444276 1000 1.00378 45.387 -0.00328065 0.150186 10037.8 0 0 0 
0.00585938 0.314453 36.7358 0.966167 0.0367357 1000 1.00301 37.7019 -0.00320281 0.154141 10030.1 0 0 0 
0.00585938 0.318359 29.9067 0.972386 0.0299066 1000 1.00236 30.8791 -0.0029934 0.157651 10023.6 0 0 0 
0.00585938 0.322266 23.7337 0.978052 0.0237337 1000 1.00183 24.7118 -0.00260735 0.160666 10018.3 0 0 0 
0.00585938 0.326172 18.2655 0.983112 0.0182655 1000 1.0014 19.2487 -0.00200556 0.163104 10014 0 0 0 
0.00585938 0.330078 13.5897 0.987469 0.0135897 1000 1.00107 14.5772 -0.00117609 0.164864 10010.7 0 0 0 
0.00585938 0.333984 9.75434 0.991064 0.00975433 1000 1.00083 10.7454 -0.000129408 0.165836 10008.3 0 0 0 
0.00585938 0.337891 6.75139 0.993891 0.00675139 1000 1.00065 7.74528 0.00110383 0.165938 10006.5 0 0 0 
0.00585938 0.341797 4.51584 0.996 0.00451583 1000 1.00052 5.51184 0.00245496 0.165107 10005.2 0 0 0 
0.00585938 0.345703 2.93306 0.997494 0.00293306 1000 1.00043 3.93055 0.00385416 0.163302 10004.3 0 0 0 
0.00585938 0.349609 1.86009 0.998504 0.00186009 1000 1.00036 2.85859 0.00523953 0.160528 10003.6 0 0 0 
0.00585938 0.353516 1.15658 0.999161 0.00115658 1000 1.00032 2.15574 0.00654419 0.156829 10003.2 0 0 0 
0.00585938 0.357422 0.707315 0.999575 0.000707315 1000 1.00028 1.70689 0.00769856 0.152289 10002.8 0 0 0 
0.00585938 0.361328 0.427575 0.999827 0.000427575 1000 1.00025 1.4274 0.00863762 0.147034 10002.5 0 0 0 
0.00585938 0.365234 0.258381 0.999973 0.000258381 1000 1.00023 1.25835 0.00931418 0.141229 10002.3 0 0 0 
0.00585938 0.369141 0.159595 1.00005 0.000159595 1000 1.00021 1.15965 0.00970689 0.135056 10002.1 0 0 0 
0.00585938 0.373047 0.104154 1.00009 0.000104154 1000 1.00019 1.10424 0.00981941 0.128707 10001.9 0 0 0 
0.00585938 0.376953 0.0739732 1.0001 7.39731e-05 1000 1.00018 1.07408 0.00967328 0.122359 10001.8 0 0 0 
0.00585938 0.380859 0.0572284 1.0001 5.72284e-05 1000 1.00016 1.05733 0.00930367 0.116177 10001.6 0 0 0 
0.00585938 0.384766 0.0465812 1.0001 4.65812e-05 1000 1.00015 1.04668 0.00876158 0.11028 10001.5 0 0 0 
0.00585938 0.388672 0.0379595 1.00009 3.79595e-05 1000 1.00013 1.03805 0.00811851 0.104775 10001.3 0 0 0 
0.00585938 0.392578 0.0296172 1.00009 2.96172e-05 1000 1.00012 1.02971 0.00746426 0.0996677 10001.2 0 0 0 
0.00585938 0.396484 0.0213229 1.00008 2.13229e-05 1000 1.0001 1.02141 0.00689294 0.0949834 10001 0 0 0 
0.00585938 0.400391 0.0136396 1.00008 1.36396e-05 1000 1.00009 1.01372 0.00647079 0.0905597 10000.9 0 0 0 
0.00585938 0.404297 0.00733244 1.00007 7.33244e-06 1000 1.00008 1.00741 0.00620399 0.0864356 10000.8 0 0 0 
0.00585938 0.408203 0.00295506 1.00007 2.95506e-06 1000 1.00007 1.00302 0.00604059 0.0822723 10000.7 0 0 0 
0.00585938 0.412109 0.000634976 1.00006 6.34976e-07 1000 1.00006 1.00069 0.00593168 0.0784495 10000.6 0 0 0 
0.00585938 0.416016 1.78091e-05 1.00004 1.78092e-08 999.998 1.00004 1.00006 0.00587826 0.0742057 10000.4 1 0 0 
0.00585938 0.419922 0.000296599 1.00004 2.96599e-07 1000 1.00004 1.00033 0.00588009 0.0705497 10000.4 0 0 0 
0.00585938 0.423828 0.000978271 1.00003 9.78271e-07 1000 1.00003 1.00101 0.00590961 0.0667521 10000.3 0 0 0 
0.00585938 0.427734 0.00165287 1.00002 1.65287e-06 1000 1.00002 1.00167 0.00594632 0.0628302 10000.2 0 0 0 
0.00585938 0.431641 0.00205248 1.00001 2.05248e-06 1000 1.00001 1.00206 0.00596028 0.0588878 10000.1 0 0 0 
0.00585938 0.435547 0.00208345 1 2.08345e-06 1000 1 1.00209 0.00591824 0.0549411 10000 0 0 0 
0.00585938 0.439453 0.00180895 0.999994 1.80895e-06 1000 0.999996 1.0018 0.00580259 0.051048 9999.96 0 0 0 
0.00585938 0.443359 0.00138532 0.999987 1.38532e-06 1000 0.999989 1.00137 0.00562243 0.0472447 9999.89 0 0 0 
0.00585938 0.447266 0.00098132 0.999981 9.8132e-07 1000 0.999982 1.00096 0.00540825 0.0435678 9999.82 0 0 0 
0.00585938 0.451172 0.000714379 0.999974 7.14379e-07 1000 0.999975 1.00069 0.00519675 0.0400243 9999.75 0 0 0 
0.00585938 0.455078 0.00062424 0.999968 6.2424e-07 1000 0.999969 1.00059 0.00501733 0.0366059 9999.69 0 0 0 
0.00585938 0.458984 0.000682833 0.999962 6.82833e-07 1000 0.999963 1.00064 0.00488458 0.0332853 9999.63 0 0 0 
0.00585938 0.462891 0.000824874 0.999956 8.24874e-07 1000 0.999957 1.00078 0.00479812 0.0300352 9999.57 0 0 0 
0.00585938 0.466797 0.000980698 0.999951 9.80698e-07 1000 0.999952 1.00093 0.00474765 0.0268251 9999.52 0 0 0 
0.00585938 0.470703 0.00109893 0.999946 1.09893e-06 1000 0.999947 1.00104 0.00471985 0.0236424 9999.47 0 0 0 
0.00585938 0.474609 0.00115534 0.999941 1.15534e-06 1000 0.999942 1.0011 0.00470332 0.0204658 9999.42 0 0 0 
0.00585938 0.478516 0.00115065 0.999937 1.15065e-06 1000 0.999938 1.00109 0.00469072 0.0173076 9999.38 0 0 0 
0.00585938 0.482422 0.00110228 0.999932 1.10228e-06 1000 0.999934 1.00103 0.00467859 0.0141355 9999.34 0 0 0 
0.00585938 0.486328 0.00103464 0.999929 1.03464e-06 1000 0.99993 1.00096 0.00466647 0.0110001 9999.3 0 0 0 
0.00585938 0.490234 0.000970818 0.999925 9.70818e-07 1000 0.999926 1.0009 0.00465558 0.00780704 9999.26 0 0 0 
0.00585938 0.494141 0.000926746 0.999923 9.26746e-07 1000 0.999924 1.00085 0.00464789 0.0047084 9999.24 0 0 0 
0.00585938 0.498047 0.000907912 0.99992 9.07913e-07 1000 0.999921 1.00083 0.00464446 0.00139632 9999.21 0 0 0 
0.00976562 0.00195312 1000.16 5.9233e-07 0.999999 1000.16 1.16092 1000.16 -0.00134199 0.000101934 11609.2 0 0 0 
0.00976562 0.00585938 1000.16 6.34143e-07 0.999999 1000.16 1.15765 1000.16 -0.00125548 0.000815055 11576.5 0 0 0 
0.00976562 0.00976562 1000.16 7.21407e-07 0.999999 1000.16 1.15572 1000.16 -0.00112809 0.00130489 11557.2 0 0 0 
0.00976562 0.0136719 1000.15 8.46197e-07 0.999999 1000.15 1.15305 1000.15 -0.00101012 0.00183179 11530.5 0 0 0 
0.00976562 0.0175781 1000.15 9.9472e-07 0.999999 1000.15 1.15079 1000.15 -0.000929073 0.00228071 11507.9 0 0 0 
0.00976562 0.0214844 1000.15 1.1499e-06 0.999999 1000.15 1.14829 1000.15 -0.000889615 0.00273283 11482.9 0 0 0 
0.00976562 0.0253906 1000.14 1.29149e-06 0.999999 1000.15 1.14594 1000.14 -0.000883513 0.00315719 11459.4 0 0 0 
0.00976562 0.0292969 1000.14 1.39719e-06 0.999999 1000.14 1.14352 1000.14 -0.00089906 0.00358638 11435.2 0 0 0 
0.00976562 0.0332031 1000.14 1.44474e-06 0.999999 1000.14 1.14115 1000.14 -0.000925868 0.00401375 11411.5 0 0 0 
0.00976562 0.0371094 1000.14 1.41584e-06 0.999999 1000.14 1.13876 1000.14 -0.000955861 0.00445182 11387.6 0 0 0 
0.00976562 0.0410156 1000.14 1.30119e-06 0.999999 1000.14 1.1364 1000.14 -0.000982213 0.00489734 11364 0 0 0 
0.00976562 0.0449219 1000.13 1.10559e-06 0.999999 1000.13 1.13404 1000.13 -0.000998395 0.00535118 11340.4 0 0 0 
0.00976562 0.0488281 1000.13 8.51553e-07 0.999999 1000.13 1.1317 1000.13 -0.000998463 0.00580678 11317 0 0 0 
0.00976562 0.0527344 1000.13 5.79876e-07 0.999999 1000.13 1.12935 1000.13 -0.000978704 0.006258 11293.5 0 0 0 
0.00976562 0.0566406 1000.13 3.45853e-07 1 1000.13 1.12703 1000.13 -0.000939923 0.00669674 11270.3 0 0 0 
0.00976562 0.0605469 1000.12 2.10887e-07 1 1000.12 1.12471 1000.12 -0.000889251 0.00711773 11247.1 0 0 0 
0.00976562 0.0644531 1000.12 2.30245e-07 1 1000.12 1.1224 1000.12 -0.000840342 0.00751952 11224 0 0 0 
0.00976562 0.0683594 1000.12 4.39078e-07 1 1000.12 1.1201 1000.12 -0.000811186 0.00790714 11201 0 0 0 
0.00976562 0.0722656 1000.12 8.39769e-07 0.999999 1000.12 1.11781 1000.12 -0.000819573 0.00829194 11178.1 0 0 0 
0.00976562 0.0761719 1000.11 1.3941e-06 0.999999 1000.12 1.11553 1000.11 -0.000877224 0.0086909 11155.3 0 0 0 