TITLE=FvSolution
VARIABLES=X Y RHO1Z1 RHO2Z2 Z1 RHO1 RHO2 RHO U V PRE theta lambdaX lambdaY 
ZONE T=TA, I=128, J=128, DATAPACKING = POINT
0.00195312 0.00195312 1000.14 8.96157e-07 0.999999 1000.14 1.14188 1000.14 0.000413731 -0.000664259 11418.8 0 0 0 
0.00195312 0.00585938 1000.14 9.26133e-07 0.999999 1000.14 1.13883 1000.14 0.000414116 -0.00150959 11388.3 0 0 0 
0.00195312 0.00976562 1000.14 9.72444e-07 0.999999 1000.14 1.13708 1000.14 0.000415062 -0.00253271 11370.8 0 0 0 
0.00195312 0.0136719 1000.13 1.01745e-06 0.999999 1000.13 1.13445 1000.13 0.000416523 -0.00348707 11344.5 0 0 0 
0.00195312 0.0175781 1000.13 1.04867e-06 0.999999 1000.13 1.13223 1000.13 0.000418319 -0.00450213 11322.3 0 0 0 
0.00195312 0.0214844 1000.13 1.06198e-06 0.999999 1000.13 1.12972 1000.13 0.000420253 -0.00549611 11297.2 0 0 0 
0.00195312 0.0253906 1000.13 1.05938e-06 0.999999 1000.13 1.12738 1000.13 0.000422187 -0.00651068 11273.8 0 0 0 
0.00195312 0.0292969 1000.12 1.04629e-06 0.999999 1000.12 1.12495 1000.12 0.000424071 -0.00751974 11249.5 0 0 0 
0.00195312 0.0332031 1000.12 1.02898e-06 0.999999 1000.12 1.12258 1000.12 0.000425933 -0.00853747 11225.8 0 0 0 
0.00195312 0.0371094 1000.12 1.01277e-06 0.999999 1000.12 1.12018 1000.12 0.000427846 -0.00955527 11201.8 0 0 0 
0.00195312 0.0410156 1000.12 1.00101e-06 0.999999 1000.12 1.11782 1000.12 0.0004299 -0.0105782 11178.2 0 0 0 
0.00195312 0.0449219 1000.11 9.94898e-07 0.999999 1000.12 1.11545 1000.11 0.000432168 -0.0116036 11154.5 0 0 0 
0.00195312 0.0488281 1000.11 9.93844e-07 0.999999 1000.11 1.11309 1000.11 0.000434699 -0.0126337 11130.9 0 0 0 
0.00195312 0.0527344 1000.11 9.9625e-07 0.999999 1000.11 1.11074 1000.11 0.000437508 -0.013668 11107.4 0 0 0 
0.00195312 0.0566406 1000.11 1.00023e-06 0.999999 1000.11 1.1084 1000.11 0.000440586 -0.0147074 11084 0 0 0 
0.00195312 0.0605469 1000.11 1.00414e-06 0.999999 1000.11 1.10607 1000.11 0.000443911 -0.0157523 11060.7 0 0 0 
0.00195312 0.0644531 1000.1 1.00678e-06 0.999999 1000.1 1.10375 1000.1 0.000447464 -0.016803 11037.5 0 0 0 
0.00195312 0.0683594 1000.1 1.00749e-06 0.999999 1000.1 1.10144 1000.1 0.000451228 -0.01786 11014.4 0 0 0 
0.00195312 0.0722656 1000.1 1.0062e-06 0.999999 1000.1 1.09913 1000.1 0.0004552 -0.0189236 10991.3 0 0 0 
0.00195312 0.0761719 1000.1 1.0036e-06 0.999999 1000.1 1.09684 1000.1 0.000459378 -0.0199942 10968.4 0 0 0 
0.00195312 0.0800781 1000.09 1.00117e-06 0.999999 1000.09 1.09456 1000.09 0.000463767 -0.0210722 10945.6 0 0 0 
0.00195312 0.0839844 1000.09 1.00083e-06 0.999999 1000.09 1.09229 1000.09 0.000468367 -0.0221579 10922.9 0 0 0 
0.00195312 0.0878906 1000.09 1.00398e-06 0.999999 1000.09 1.09003 1000.09 0.000473187 -0.0232517 10900.3 0 0 0 
0.00195312 0.0917969 1000.09 1.01023e-06 0.999999 1000.09 1.08778 1000.09 0.000478249 -0.024354 10877.8 0 0 0 
0.00195312 0.0957031 1000.08 1.01649e-06 0.999999 1000.09 1.08555 1000.08 0.000483583 -0.0254651 10855.5 0 0 0 
0.00195312 0.0996094 1000.08 1.01763e-06 0.999999 1000.08 1.08332 1000.08 0.000489198 -0.0265858 10833.2 0 0 0 
0.00195312 0.103516 1000.08 1.009e-06 0.999999 1000.08 1.08111 1000.08 0.000495031 -0.0277163 10811.1 0 0 0 
0.00195312 0.107422 1000.08 9.90203e-07 0.999999 1000.08 1.07891 1000.08 0.000500924 -0.028857 10789.1 0 0 0 
0.00195312 0.111328 1000.08 9.68073e-07 0.999999 1000.08 1.07672 1000.08 0.000506738 -0.0300079 10767.2 0 0 0 
0.00195312 0.115234 1000.07 9.56015e-07 0.999999 1000.07 1.07454 1000.07 0.000512595 -0.0311686 10745.4 0 0 0 
0.00195312 0.119141 1000.07 9.68738e-07 0.999999 1000.07 1.07237 1000.07 0.000519033 -0.0323397 10723.7 0 0 0 
0.00195312 0.123047 1000.07 1.01385e-06 0.999999 1000.07 1.07022 1000.07 0.000526698 -0.033523 10702.2 0 0 0 
0.00195312 0.126953 1000.07 1.08415e-06 0.999999 1000.07 1.06808 1000.07 0.000535501 -0.034721 10680.8 0 0 0 
0.00195312 0.130859 1000.06 1.15387e-06 0.999999 1000.07 1.06595 1000.06 0.00054401 -0.0359346 10659.5 0 0 0 
0.00195312 0.134766 1000.06 1.18052e-06 0.999999 1000.06 1.06383 1000.06 0.000550239 -0.0371612 10638.3 0 0 0 
0.00195312 0.138672 1000.06 1.11436e-06 0.999999 1000.06 1.06173 1000.06 0.000553892 -0.0383956 10617.3 0 0 0 
0.00195312 0.142578 1000.06 9.22144e-07 0.999999 1000.06 1.05964 1000.06 0.000557875 -0.0396348 10596.4 0 0 0 
0.00195312 0.146484 1000.06 6.28773e-07 0.999999 1000.06 1.05756 1000.06 0.000566224 -0.0408837 10575.6 0 0 0 
0.00195312 0.150391 1000.06 3.60417e-07 1 1000.06 1.05549 1000.06 0.000579007 -0.0421518 10554.9 0 0 0 
0.00195312 0.154297 1000.05 3.40833e-07 1 1000.05 1.05344 1000.05 0.000590006 -0.043443 10534.4 0 0 0 
0.00195312 0.158203 1000.05 7.90382e-07 0.999999 1000.05 1.05141 1000.05 0.000592813 -0.0447458 10514.1 0 0 0 
0.00195312 0.162109 1000.05 1.74152e-06 0.999998 1000.05 1.04939 1000.05 0.000591712 -0.0460472 10493.9 0 0 0 
0.00195312 0.166016 1000.04 2.89075e-06 0.999997 1000.05 1.0474 1000.04 0.000603362 -0.0473526 10474 0 0 0 
0.00195312 0.169922 1000.04 3.65192e-06 0.999997 1000.05 1.04541 1000.04 0.000639675 -0.0487055 10454.1 0 0 0 
0.00195312 0.173828 1000.04 3.47017e-06 0.999997 1000.04 1.04348 1000.04 0.000684813 -0.0501385 10434.8 0 0 0 
0.00195312 0.177734 1000.04 2.24962e-06 0.999998 1000.04 1.04152 1000.04 0.000698447 -0.0516435 10415.2 0 0 0 
0.00195312 0.181641 1000.04 6.33921e-07 0.999999 1000.04 1.03988 1000.04 0.000661521 -0.0531229 10398.8 0 0 0 
0.00195312 0.185547 1000.03 1.69711e-09 1 1000.03 1.03117 1000.03 0.000626778 -0.0545822 10311.7 1 0 0 
0.00195312 0.189453 1000.03 2.27642e-06 0.999998 1000.04 1.03552 1000.03 0.000658918 -0.0558793 10355.2 0 0 0 
0.00195312 0.193359 1000.02 1.2989e-05 0.999987 1000.03 1.03378 1000.02 0.000688251 -0.05732 10337.8 0 0 0 
0.00195312 0.197266 1000 3.19714e-05 0.999969 1000.03 1.03174 1000 0.000675913 -0.0587781 10317.4 0 0 0 
0.00195312 0.201172 999.978 5.34932e-05 0.999948 1000.03 1.02977 999.978 0.000654036 -0.0602026 10297.7 0 0 0 
0.00195312 0.205078 999.962 6.78782e-05 0.999934 1000.03 1.02779 999.962 0.000663636 -0.0616053 10277.9 0 0 0 
0.00195312 0.208984 999.962 6.56567e-05 0.999936 1000.03 1.02585 999.962 0.000707456 -0.0630639 10258.5 0 0 0 
0.00195312 0.212891 999.981 4.41618e-05 0.999957 1000.02 1.02392 999.981 0.000756602 -0.0646146 10239.2 0 0 0 
0.00195312 0.216797 1000.01 1.50004e-05 0.999985 1000.02 1.02201 1000.01 0.000785245 -0.0662404 10220.1 0 0 0 
0.00195312 0.220703 1000.01 1.04082e-05 0.99999 1000.02 1.02011 1000.01 0.000791536 -0.0678937 10201.1 0 0 0 
0.00195312 0.224609 999.932 8.8066e-05 0.999914 1000.02 1.01823 999.932 0.000792516 -0.0695503 10182.3 0 0 0 
0.00195312 0.228516 999.684 0.000337306 0.999668 1000.02 1.01636 999.685 0.000806658 -0.0712275 10163.6 0 0 0 
0.00195312 0.232422 999.134 0.000893743 0.999119 1000.01 1.01451 999.134 0.000841989 -0.0729778 10145.1 0 0 0 
0.00195312 0.236328 998.062 0.00197525 0.998049 1000.01 1.01268 998.064 0.000895628 -0.074867 10126.8 0 0 0 
0.00195312 0.240234 996.091 0.00396273 0.99608 1000.01 1.01086 996.095 0.000960337 -0.0769656 10108.6 0 0 0 
0.00195312 0.244141 992.509 0.00756816 0.9925 1000.01 1.00905 992.516 0.00102979 -0.0793556 10090.5 0 0 0 
0.00195312 0.248047 985.934 0.0141753 0.985927 1000.01 1.00728 985.949 0.00109836 -0.0821542 10072.8 0 0 0 
0.00195312 0.251953 973.601 0.0265509 0.973596 1000.01 1.00555 973.628 0.00115926 -0.085555 10055.5 0 0 0 
0.00195312 0.255859 949.783 0.0504168 0.949779 1000 1.00389 949.833 0.00120646 -0.0898922 10038.9 0 0 0 
0.00195312 0.259766 901.48 0.0987518 0.901478 1000 1.00233 901.579 0.00124095 -0.0958117 10023.3 0 0 0 
0.00195312 0.263672 804.22 0.195975 0.804219 1000 1.00099 804.416 0.00127063 -0.104376 10009.9 0 0 0 
0.00195312 0.267578 648.467 0.351541 0.648467 1000 1.00002 648.819 0.00130158 -0.116588 10000.2 0 0 0 
0.00195312 0.271484 460.727 0.539164 0.460727 1000 0.999797 461.266 0.0013318 -0.131124 9997.97 0 0 0 
0.00195312 0.275391 281.503 0.718546 0.281503 1000 1.00007 282.221 0.00134847 -0.144677 10000.7 0 0 0 
0.00195312 0.279297 148.253 0.852027 0.148253 1000 1.00033 149.105 0.00132432 -0.154947 10003.3 0 0 0 
0.00195312 0.283203 74.2169 0.92621 0.0742168 1000 1.00046 75.1431 0.00122323 -0.161583 10004.6 0 0 0 
0.00195312 0.287109 38.4888 0.962004 0.0384888 1000 1.00051 39.4508 0.00102317 -0.165863 10005.1 0 0 0 
0.00195312 0.291016 20.4163 0.980096 0.0204163 1000 1.00052 21.3964 0.00072686 -0.168577 10005.2 0 0 0 
0.00195312 0.294922 10.9425 0.989573 0.0109424 1000 1.00052 11.932 0.000337377 -0.170107 10005.2 0 0 0 
0.00195312 0.298828 5.83905 0.994672 0.00583904 1000 1.00051 6.83372 -0.000140305 -0.170496 10005.1 0 0 0 
0.00195312 0.302734 3.03537 0.997471 0.00303537 1000 1.00051 4.03284 -0.000661397 -0.169724 10005.1 0 0 0 
0.00195312 0.306641 1.48719 0.999014 0.00148719 1000 1.0005 2.4862 -0.00118174 -0.167849 10005 0 0 0 
0.00195312 0.310547 0.65183 0.999846 0.000651829 1000 1.0005 1.65168 -0.00164045 -0.164952 10005 0 0 0 
0.00195312 0.314453 0.233158 1.00026 0.000233158 1000 1.00049 1.23342 -0.00197564 -0.161233 10004.9 0 0 0 
0.00195312 0.318359 0.0569495 1.00043 5.69495e-05 1000 1.00049 1.05738 -0.0021633 -0.156987 10004.9 0 0 0 
0.00195312 0.322266 0.0124658 1.00048 1.24658e-05 1000 1.00049 1.01294 -0.00223384 -0.152486 10004.9 0 0 0 
0.00195312 0.326172 0.0268493 1.00046 2.68493e-05 1000 1.00049 1.02731 -0.00224206 -0.14791 10004.9 0 0 0 
0.00195312 0.330078 0.0543345 1.00043 5.43345e-05 1000 1.00048 1.05476 -0.00223451 -0.143331 10004.8 0 0 0 
0.00195312 0.333984 0.0708299 1.00041 7.08298e-05 1000 1.00048 1.07124 -0.00223296 -0.13876 10004.8 0 0 0 
0.00195312 0.337891 0.0691011 1.00041 6.9101e-05 1000 1.00048 1.06951 -0.00222761 -0.134189 10004.8 0 0 0 
0.00195312 0.341797 0.0529969 1.00042 5.29969e-05 1000 1.00047 1.05342 -0.00218772 -0.129666 10004.7 0 0 0 
0.00195312 0.345703 0.0313301 1.00044 3.13301e-05 1000 1.00047 1.03177 -0.00209167 -0.125277 10004.7 0 0 0 
0.00195312 0.349609 0.0127241 1.00046 1.27241e-05 1000 1.00047 1.01318 -0.00195701 -0.121149 10004.7 0 0 0 
0.00195312 0.353516 0.00226928 1.00046 2.26928e-06 1000 1.00047 1.00273 -0.00183613 -0.117296 10004.7 0 0 0 
0.00195312 0.357422 6.86397e-06 1.00048 6.864e-09 999.994 1.00048 1.00049 -0.00178503 -0.113732 10004.8 1 0 0 
0.00195312 0.361328 0.000651333 1.00046 6.51332e-07 1000 1.00046 1.00111 -0.00183091 -0.10993 10004.6 0 0 0 
0.00195312 0.365234 0.00227257 1.00045 2.27257e-06 1000 1.00046 1.00273 -0.001911 -0.10613 10004.6 0 0 0 
0.00195312 0.369141 0.00354985 1.00045 3.54985e-06 1000 1.00045 1.004 -0.00197683 -0.102195 10004.5 0 0 0 
0.00195312 0.373047 0.00386885 1.00045 3.86885e-06 1000 1.00045 1.00432 -0.00200148 -0.0981957 10004.5 0 0 0 
0.00195312 0.376953 0.00325131 1.00044 3.25131e-06 1000 1.00045 1.0037 -0.00198474 -0.0942001 10004.5 0 0 0 
0.00195312 0.380859 0.00212705 1.00044 2.12705e-06 1000 1.00044 1.00257 -0.00194546 -0.0902859 10004.4 0 0 0 
0.00195312 0.384766 0.00103122 1.00044 1.03122e-06 1000 1.00044 1.00147 -0.00190311 -0.0864718 10004.4 0 0 0 
0.00195312 0.388672 0.000346003 1.00044 3.46003e-07 1000 1.00044 1.00078 -0.00186726 -0.0827574 10004.4 0 0 0 
0.00195312 0.392578 0.000179732 1.00043 1.79732e-07 1000 1.00044 1.00061 -0.00183781 -0.079127 10004.4 0 0 0 
0.00195312 0.396484 0.00040107 1.00043 4.0107e-07 1000 1.00043 1.00083 -0.00181061 -0.0755734 10004.3 0 0 0 
0.00195312 0.400391 0.000770532 1.00043 7.70532e-07 1000 1.00043 1.0012 -0.00178266 -0.0720952 10004.3 0 0 0 
0.00195312 0.404297 0.00107922 1.00042 1.07922e-06 1000 1.00043 1.0015 -0.0017542 -0.0686947 10004.3 0 0 0 
0.00195312 0.408203 0.00122667 1.00042 1.22667e-06 1000 1.00042 1.00165 -0.00172755 -0.0653706 10004.2 0 0 0 
0.00195312 0.412109 0.00122134 1.00042 1.22134e-06 1000 1.00042 1.00164 -0.00170481 -0.0621171 10004.2 0 0 0 
0.00195312 0.416016 0.00113184 1.00041 1.13184e-06 1000 1.00042 1.00155 -0.00168621 -0.0589256 10004.2 0 0 0 
0.00195312 0.419922 0.0010314 1.00041 1.0314e-06 1000 1.00041 1.00144 -0.00167023 -0.0557893 10004.1 0 0 0 
0.00195312 0.423828 0.000964617 1.00041 9.64617e-07 1000 1.00041 1.00137 -0.001655 -0.0527049 10004.1 0 0 0 
0.00195312 0.427734 0.000942056 1.00041 9.42055e-07 1000 1.00041 1.00135 -0.00163957 -0.0496721 10004.1 0 0 0 
0.00195312 0.431641 0.000952002 1.0004 9.52001e-07 1000 1.0004 1.00135 -0.00162413 -0.0466911 10004 0 0 0 
0.00195312 0.435547 0.000975755 1.0004 9.75754e-07 1000 1.0004 1.00137 -0.00160953 -0.0437609 10004 0 0 0 
0.00195312 0.439453 0.00099811 1.0004 9.98109e-07 1000 1.0004 1.00139 -0.00159641 -0.0408786 10004 0 0 0 
0.00195312 0.443359 0.00101132 1.00039 1.01132e-06 1000 1.00039 1.0014 -0.00158493 -0.0380403 10003.9 0 0 0 
0.00195312 0.447266 0.00101448 1.00039 1.01448e-06 1000 1.00039 1.0014 -0.00157487 -0.0352415 10003.9 0 0 0 
0.00195312 0.451172 0.00101078 1.00039 1.01078e-06 1000 1.00039 1.0014 -0.0015659 -0.032479 10003.9 0 0 0 
0.00195312 0.455078 0.00100465 1.00038 1.00465e-06 1000 1.00038 1.00139 -0.00155774 -0.0297496 10003.8 0 0 0 
0.00195312 0.458984 0.000999561 1.00038 9.99561e-07 1000 1.00038 1.00138 -0.00155019 -0.0270529 10003.8 0 0 0 
0.00195312 0.462891 0.000997089 1.00038 9.97089e-07 1000 1.00038 1.00137 -0.00154314 -0.0243844 10003.8 0 0 0 
0.00195312 0.466797 0.000997086 1.00037 9.97086e-07 1000 1.00037 1.00137 -0.00153659 -0.0217445 10003.7 0 0 0 
0.00195312 0.470703 0.000998453 1.00037 9.98453e-07 1000 1.00037 1.00137 -0.00153059 -0.0191238 10003.7 0 0 0 
0.00195312 0.474609 0.001 1.00037 1e-06 1000 1.00037 1.00137 -0.00152524 -0.0165305 10003.7 0 0 0 
0.00195312 0.478516 0.001001 1.00037 1.001e-06 1000 1.00037 1.00137 -0.00152053 -0.0139456 10003.7 0 0 0 
0.00195312 0.482422 0.00100127 1.00036 1.00127e-06 1000 1.00036 1.00136 -0.00151647 -0.0113985 10003.6 0 0 0 
0.00195312 0.486328 0.00100101 1.00036 1.00101e-06 1000 1.00036 1.00136 -0.0015131 -0.00883785 10003.6 0 0 0 
0.00195312 0.490234 0.00100055 1.00036 1.00055e-06 1000 1.00036 1.00136 -0.00151058 -0.00635547 10003.6 0 0 0 
0.00195312 0.494141 0.00100017 1.00035 1.00017e-06 1000 1.00036 1.00136 -0.00150905 -0.00379818 10003.6 0 0 0 
0.00195312 0.498047 0.000999978 1.00035 9.99978e-07 1000 1.00035 1.00135 -0.00150845 -0.00143268 10003.5 0 0 0 
0.00585938 0.00195312 1000.14 8.94767e-07 0.999999 1000.14 1.14201 1000.14 0.00122945 -0.000664111 11420.1 0 0 0 
0.00585938 0.00585938 1000.14 9.24693e-07 0.999999 1000.14 1.13895 1000.14 0.0012306 -0.00150915 11389.5 0 0 0 
0.00585938 0.00976562 1000.14 9.70929e-07 0.999999 1000.14 1.13721 1000.14 0.00123345 -0.00253198 11372.1 0 0 0 
0.00585938 0.0136719 1000.13 1.01586e-06 0.999999 1000.13 1.13457 1000.13 0.00123784 -0.00348608 11345.7 0 0 0 
0.00585938 0.0175781 1000.13 1.04703e-06 0.999999 1000.13 1.13235 1000.13 0.00124323 -0.00450089 11323.5 0 0 0 
0.00585938 0.0214844 1000.13 1.06031e-06 0.999999 1000.13 1.12985 1000.13 0.00124903 -0.00549465 11298.5 0 0 0 
0.00585938 0.0253906 1000.13 1.05771e-06 0.999999 1000.13 1.1275 1000.13 0.00125482 -0.00650901 11275 0 0 0 
0.00585938 0.0292969 1000.12 1.04464e-06 0.999999 1000.13 1.12507 1000.12 0.00126046 -0.00751786 11250.7 0 0 0 
0.00585938 0.0332031 1000.12 1.02736e-06 0.999999 1000.12 1.1227 1000.12 0.00126603 -0.00853537 11227 0 0 0 
0.00585938 0.0371094 1000.12 1.01117e-06 0.999999 1000.12 1.12031 1000.12 0.00127176 -0.00955295 11203.1 0 0 0 
0.00585938 0.0410156 1000.12 9.99429e-07 0.999999 1000.12 1.11794 1000.12 0.00127791 -0.0105756 11179.4 0 0 0 
0.00585938 0.0449219 1000.11 9.93317e-07 0.999999 1000.12 1.11557 1000.11 0.00128471 -0.0116009 11155.7 0 0 0 
0.00585938 0.0488281 1000.11 9.92261e-07 0.999999 1000.11 1.11322 1000.11 0.00129229 -0.0126307 11132.2 0 0 0 
0.00585938 0.0527344 1000.11 9.94663e-07 0.999999 1000.11 1.11087 1000.11 0.00130071 -0.0136647 11108.7 0 0 0 
0.00585938 0.0566406 1000.11 9.98644e-07 0.999999 1000.11 1.10853 1000.11 0.00130994 -0.0147039 11085.3 0 0 0 
0.00585938 0.0605469 1000.11 1.00255e-06 0.999999 1000.11 1.1062 1000.11 0.00131991 -0.0157485 11062 0 0 0 
0.00585938 0.0644531 1000.1 1.00518e-06 0.999999 1000.1 1.10387 1000.1 0.00133057 -0.016799 11038.7 0 0 0 
0.00585938 0.0683594 1000.1 1.00587e-06 0.999999 1000.1 1.10156 1000.1 0.00134186 -0.0178558 11015.6 0 0 0 
0.00585938 0.0722656 1000.1 1.00456e-06 0.999999 1000.1 1.09926 1000.1 0.00135378 -0.0189191 10992.6 0 0 0 
0.00585938 0.0761719 1000.1 1.00195e-06 0.999999 1000.1 1.09697 1000.1 0.00136631 -0.0199895 10969.7 0 0 0 
0.00585938 0.0800781 1000.09 9.99528e-07 0.999999 1000.09 1.09469 1000.09 0.00137947 -0.0210672 10946.9 0 0 0 
0.00585938 0.0839844 1000.09 9.99216e-07 0.999999 1000.09 1.09242 1000.09 0.00139327 -0.0221527 10924.2 0 0 0 
0.00585938 0.0878906 1000.09 1.00241e-06 0.999999 1000.09 1.09016 1000.09 0.00140772 -0.0232462 10901.6 0 0 0 
0.00585938 0.0917969 1000.09 1.00867e-06 0.999999 1000.09 1.08791 1000.09 0.0014229 -0.0243482 10879.1 0 0 0 
0.00585938 0.0957031 1000.08 1.0149e-06 0.999999 1000.09 1.08567 1000.08 0.00143891 -0.0254591 10856.7 0 0 0 
0.00585938 0.0996094 1000.08 1.01596e-06 0.999999 1000.08 1.08345 1000.08 0.00145576 -0.0265795 10834.5 0 0 0 
0.00585938 0.103516 1000.08 1.00725e-06 0.999999 1000.08 1.08123 1000.08 0.00147324 -0.0277098 10812.3 0 0 0 
0.00585938 0.107422 1000.08 9.88454e-07 0.999999 1000.08 1.07903 1000.08 0.0014909 -0.0288503 10790.3 0 0 0 
0.00585938 0.111328 1000.08 9.66401e-07 0.999999 1000.08 1.07684 1000.08 0.00150834 -0.0300008 10768.4 0 0 0 
0.00585938 0.115234 1000.07 9.54393e-07 0.999999 1000.07 1.07467 1000.07 0.00152597 -0.0311613 10746.7 0 0 0 
0.00585938 0.119141 1000.07 9.67041e-07 0.999999 1000.07 1.0725 1000.07 0.00154537 -0.0323324 10725 0 0 0 
0.00585938 0.123047 1000.07 1.0121e-06 0.999999 1000.07 1.07035 1000.07 0.00156838 -0.0335157 10703.5 0 0 0 
0.00585938 0.126953 1000.07 1.08272e-06 0.999999 1000.07 1.0682 1000.07 0.00159464 -0.0347136 10682 0 0 0 
0.00585938 0.130859 1000.06 1.15326e-06 0.999999 1000.07 1.06607 1000.06 0.00161992 -0.0359267 10660.7 0 0 0 
0.00585938 0.134766 1000.06 1.18037e-06 0.999999 1000.06 1.06396 1000.06 0.0016386 -0.0371525 10639.6 0 0 0 
0.00585938 0.138672 1000.06 1.11292e-06 0.999999 1000.06 1.06185 1000.06 0.00165006 -0.0383865 10618.5 0 0 0 
0.00585938 0.142578 1000.06 9.17375e-07 0.999999 1000.06 1.05976 1000.06 0.00166273 -0.0396266 10597.6 0 0 0 
0.00585938 0.146484 1000.06 6.21194e-07 0.999999 1000.06 1.05768 1000.06 0.00168791 -0.0408775 10576.8 0 0 0 
0.00585938 0.150391 1000.06 3.54787e-07 1 1000.06 1.05562 1000.06 0.00172532 -0.0421467 10556.2 0 0 0 
0.00585938 0.154297 1000.05 3.4334e-07 1 1000.05 1.05356 1000.05 0.00175713 -0.0434364 10535.6 0 0 0 
0.00585938 0.158203 1000.05 8.01955e-07 0.999999 1000.05 1.05153 1000.05 0.00176602 -0.0447366 10515.3 0 0 0 
0.00585938 0.162109 1000.05 1.75368e-06 0.999998 1000.05 1.04951 1000.05 0.00176569 -0.0460386 10495.1 0 0 0 
0.00585938 0.166016 1000.04 2.89069e-06 0.999997 1000.05 1.04752 1000.04 0.00180392 -0.0473515 10475.2 0 0 0 
0.00585938 0.169922 1000.04 3.6347e-06 0.999997 1000.05 1.04552 1000.04 0.00191221 -0.0487148 10455.2 0 0 0 
0.00585938 0.173828 1000.04 3.44594e-06 0.999997 1000.04 1.04359 1000.04 0.00204159 -0.0501506 10435.9 0 0 0 
0.00585938 0.177734 1000.04 2.23475e-06 0.999998 1000.04 1.04162 1000.04 0.00207606 -0.0516444 10416.2 0 0 0 
0.00585938 0.181641 1000.04 6.32185e-07 0.999999 1000.04 1.03996 1000.04 0.00196795 -0.0531052 10399.6 0 0 0 
0.00585938 0.185547 1000.03 2.73097e-09 1 1000.03 1.03134 1000.03 0.00187507 -0.0545559 10313.4 1 0 0 
0.00585938 0.189453 1000.03 2.30595e-06 0.999998 1000.04 1.03561 1000.03 0.00196169 -0.0558446 10356.1 0 0 0 
0.00585938 0.193359 1000.02 1.30823e-05 0.999987 1000.03 1.03387 1000.02 0.00204982 -0.057273 10338.7 0 0 0 
0.00585938 0.197266 1000 3.20999e-05 0.999969 1000.03 1.03184 1000 0.0020205 -0.0587296 10318.4 0 0 0 
0.00585938 0.201172 999.978 5.35694e-05 0.999948 1000.03 1.02988 999.978 0.00195963 -0.0601669 10298.8 0 0 0 
0.00585938 0.205078 999.962 6.78155e-05 0.999934 1000.03 1.0279 999.962 0.00198592 -0.0615856 10279 0 0 0 
0.00585938 0.208984 999.962 6.54376e-05 0.999936 1000.03 1.02597 999.962 0.00211058 -0.0630504 10259.7 0 0 0 
0.00585938 0.212891 999.981 4.38766e-05 0.999957 1000.02 1.02404 999.981 0.00225245 -0.0645945 10240.4 0 0 0 
0.00585938 0.216797 1000.01 1.4846e-05 0.999985 1000.02 1.02213 1000.01 0.00233691 -0.0662071 10221.3 0 0 0 
0.00585938 0.220703 1000.01 1.06551e-05 0.99999 1000.02 1.02023 1000.01 0.00235681 -0.067848 10202.3 0 0 0 
0.00585938 0.224609 999.931 8.90217e-05 0.999913 1000.02 1.01834 999.931 0.00236032 -0.0694946 10183.4 0 0 0 
0.00585938 0.228516 999.683 0.000339305 0.999666 1000.02 1.01647 999.683 0.00240143 -0.0711616 10164.7 0 0 0 
0.00585938 0.232422 999.13 0.000897183 0.999116 1000.01 1.0146 999.131 0.00250477 -0.0728973 10146 0 0 0 
0.00585938 0.236328 998.057 0.00198068 0.998044 1000.01 1.01275 998.059 0.00266281 -0.0747663 10127.5 0 0 0 
0.00585938 0.240234 996.083 0.00397101 0.996072 1000.01 1.01091 996.087 0.00285449 -0.0768392 10109.1 0 0 0 
0.00585938 0.244141 992.497 0.00758075 0.992488 1000.01 1.0091 992.504 0.00306147 -0.0791997 10091 0 0 0 
0.00585938 0.248047 985.915 0.0141948 0.985908 1000.01 1.00732 985.93 0.00326824 -0.0819686 10073.2 0 0 0 
0.00585938 0.251953 973.57 0.0265827 0.973565 1000.01 1.00558 973.597 0.00345651 -0.0853471 10055.8 0 0 0 
0.00585938 0.255859 949.728 0.0504728 0.949724 1000 1.00391 949.778 0.00360797 -0.0896811 10039.1 0 0 0 
0.00585938 0.259766 901.371 0.0988636 0.901368 1000 1.00235 901.469 0.00371928 -0.0956251 10023.5 0 0 0 
0.00585938 0.263672 804.007 0.196192 0.804006 1000 1.00101 804.203 0.0038079 -0.104241 10010.1 0 0 0 
0.00585938 0.267578 648.147 0.351866 0.648146 1000 1.00004 648.498 0.00388682 -0.116509 10000.4 0 0 0 
0.00585938 0.271484 460.356 0.53954 0.460356 1000 0.999808 460.896 0.00395047 -0.131068 9998.08 0 0 0 
0.00585938 0.275391 281.181 0.718872 0.281181 1000 1.00007 281.899 0.00398127 -0.144595 10000.7 0 0 0 
0.00585938 0.279297 148.069 0.852214 0.148069 1000 1.00033 148.921 0.00390468 -0.154795 10003.3 0 0 0 
0.00585938 0.283203 74.1524 0.926276 0.0741523 1000 1.00046 75.0786 0.00360199 -0.161335 10004.6 0 0 0 
0.00585938 0.287109 38.4739 0.962019 0.0384738 1000 1.00051 39.4359 0.00300906 -0.165507 10005.1 0 0 0 
0.00585938 0.291016 20.4174 0.980095 0.0204174 1000 1.00052 21.3975 0.00212632 -0.168129 10005.2 0 0 0 
0.00585938 0.294922 10.9472 0.989568 0.0109472 1000 1.00052 11.9368 0.000987 -0.169595 10005.2 0 0 0 
0.00585938 0.298828 5.84335 0.994667 0.00584334 1000 1.00051 6.83801 -0.00038294 -0.16998 10005.1 0 0 0 
0.00585938 0.302734 3.03825 0.997467 0.00303825 1000 1.00051 4.03572 -0.00191303 -0.16925 10005.1 0 0 0 
0.00585938 0.306641 1.4888 0.999012 0.0014888 1000 1.0005 2.48781 -0.00345909 -0.167434 10005 0 0 0 
0.00585938 0.310547 0.652545 0.999844 0.000652545 1000 1.0005 1.65239 -0.00482281 -0.164597 10005 0 0 0 
0.00585938 0.314453 0.233339 1.00026 0.000233339 1000 1.00049 1.2336 -0.0058163 -0.160938 10004.9 0 0 0 
0.00585938 0.318359 0.0568736 1.00043 5.68735e-05 1000 1.00049 1.05731 -0.00636859 -0.156758 10004.9 0 0 0 
0.00585938 0.322266 0.0123135 1.00048 1.23135e-05 1000 1.00049 1.01279 -0.00658133 -0.152325 10004.9 0 0 0 
0.00585938 0.326172 0.0267083 1.00046 2.67083e-05 1000 1.00049 1.02717 -0.0066185 -0.147802 10004.9 0 0 0 
0.00585938 0.330078 0.0542247 1.00043 5.42247e-05 1000 1.00048 1.05465 -0.0066095 -0.14325 10004.8 0 0 0 
0.00585938 0.333984 0.0707383 1.00041 7.07382e-05 1000 1.00048 1.07115 -0.00661331 -0.138685 10004.8 0 0 0 
0.00585938 0.337891 0.0690139 1.00041 6.90139e-05 1000 1.00048 1.06942 -0.00660035 -0.134109 10004.8 0 0 0 
0.00585938 0.341797 0.0529151 1.00042 5.29151e-05 1000 1.00047 1.05334 -0.00648114 -0.129579 10004.7 0 0 0 
0.00585938 0.345703 0.0312658 1.00044 3.12658e-05 1000 1.00047 1.03171 -0.00619162 -0.125185 10004.7 0 0 0 
0.00585938 0.349609 0.0126875 1.00046 1.26875e-05 1000 1.00047 1.01314 -0.00578585 -0.121058 10004.7 0 0 0 
0.00585938 0.353516 0.00225775 1.00046 2.25775e-06 1000 1.00047 1.00272 -0.00543471 -0.117213 10004.7 0 0 0 
0.00585938 0.357422 6.3566e-06 1.00048 6.35659e-09 1000 1.00048 1.00048 -0.00532725 -0.113664 10004.8 1 0 0 
0.00585938 0.361328 0.000649369 1.00046 6.49368e-07 1000 1.00046 1.00111 -0.00541402 -0.109888 10004.6 0 0 0 
0.00585938 0.365234 0.00227101 1.00045 2.27101e-06 1000 1.00046 1.00272 -0.00564156 -0.106115 10004.6 0 0 0 
0.00585938 0.369141 0.00355056 1.00045 3.55056e-06 1000 1.00045 1.004 -0.00584663 -0.102198 10004.5 0 0 0 
0.00585938 0.373047 0.00387004 1.00045 3.87004e-06 1000 1.00045 1.00432 -0.00592898 -0.0982021 10004.5 0 0 0 
0.00585938 0.376953 0.00325012 1.00044 3.25012e-06 1000 1.00045 1.00369 -0.00588431 -0.0941972 10004.5 0 0 0 
0.00585938 0.380859 0.00212275 1.00044 2.12275e-06 1000 1.00044 1.00256 -0.00576869 -0.0902681 10004.4 0 0 0 
0.00585938 0.384766 0.00102569 1.00044 1.02569e-06 1000 1.00044 1.00147 -0.00564046 -0.0864416 10004.4 0 0 0 
0.00585938 0.388672 0.000342043 1.00044 3.42043e-07 1000 1.00044 1.00078 -0.00553051 -0.0827222 10004.4 0 0 0 
0.00585938 0.392578 0.000179002 1.00043 1.79002e-07 1000 1.00043 1.00061 -0.00544093 -0.0790932 10004.3 0 0 0 
0.00585938 0.396484 0.000403138 1.00043 4.03138e-07 1000 1.00043 1.00083 -0.00535985 -0.0755438 10004.3 0 0 0 
0.00585938 0.400391 0.000773478 1.00043 7.73477e-07 1000 1.00043 1.0012 -0.00527742 -0.0720694 10004.3 0 0 0 
0.00585938 0.404297 0.00108115 1.00042 1.08115e-06 1000 1.00042 1.0015 -0.00519335 -0.0686717 10004.2 0 0 0 
0.00585938 0.408203 0.0012269 1.00042 1.2269e-06 1000 1.00042 1.00165 -0.00511435 -0.0653499 10004.2 0 0 0 
0.00585938 0.412109 0.00122044 1.00042 1.22044e-06 1000 1.00042 1.00164 -0.00504682 -0.0620986 10004.2 0 0 0 
0.00585938 0.416016 0.00113082 1.00041 1.13082e-06 1000 1.00042 1.00154 -0.00499159 -0.0589092 10004.2 0 0 0 
0.00585938 0.419922 0.00103089 1.00041 1.03088e-06 1000 1.00041 1.00144 -0.00494422 -0.0557748 10004.1 0 0 0 
0.00585938 0.423828 0.000964626 1.00041 9.64625e-07 1000 1.00041 1.00137 -0.00489913 -0.052692 10004.1 0 0 0 
0.00585938 0.427734 0.000942282 1.0004 9.42281e-07 1000 1.00041 1.00135 -0.00485343 -0.0496606 10004.1 0 0 0 
0.00585938 0.431641 0.000952185 1.0004 9.52185e-07 1000 1.0004 1.00135 -0.0048078 -0.046681 10004 0 0 0 
0.00585938 0.435547 0.000975823 1.0004 9.75823e-07 1000 1.0004 1.00137 -0.00476468 -0.043752 10004 0 0 0 
0.00585938 0.439453 0.000998111 1.00039 9.9811e-07 1000 1.0004 1.00139 -0.004726 -0.0408707 10004 0 0 0 
0.00585938 0.443359 0.00101131 1.00039 1.01131e-06 1000 1.00039 1.0014 -0.00469214 -0.0380332 10003.9 0 0 0 
0.00585938 0.447266 0.00101447 1.00039 1.01447e-06 1000 1.00039 1.0014 -0.00466236 -0.0352351 10003.9 0 0 0 
0.00585938 0.451172 0.00101078 1.00039 1.01078e-06 1000 1.00039 1.0014 -0.00463569 -0.0324734 10003.9 0 0 0 
0.00585938 0.455078 0.00100464 1.00038 1.00464e-06 1000 1.00038 1.00139 -0.00461146 -0.0297449 10003.8 0 0 0 
0.00585938 0.458984 0.000999547 1.00038 9.99547e-07 1000 1.00038 1.00138 -0.00458918 -0.0270488 10003.8 0 0 0 
0.00585938 0.462891 0.000997081 1.00038 9.9708e-07 1000 1.00038 1.00137 -0.00456853 -0.0243807 10003.8 0 0 0 
0.00585938 0.466797 0.000997085 1.00037 9.97084e-07 1000 1.00037 1.00137 -0.00454932 -0.0217412 10003.7 0 0 0 
0.00585938 0.470703 0.000998455 1.00037 9.98455e-07 1000 1.00037 1.00137 -0.00453166 -0.019121 10003.7 0 0 0 
0.00585938 0.474609 0.00100001 1.00037 1.00001e-06 1000 1.00037 1.00137 -0.00451575 -0.0165282 10003.7 0 0 0 
0.00585938 0.478516 0.001001 1.00036 1.001e-06 1000 1.00037 1.00137 -0.00450174 -0.0139439 10003.7 0 0 0 
0.00585938 0.482422 0.00100127 1.00036 1.00127e-06 1000 1.00036 1.00136 -0.00448972 -0.0113973 10003.6 0 0 0 
0.00585938 0.486328 0.00100101 1.00036 1.00101e-06 1000 1.00036 1.00136 -0.00447978 -0.00883693 10003.6 0 0 0 
0.00585938 0.490234 0.00100055 1.00036 1.00055e-06 1000 1.00036 1.00136 -0.00447238 -0.00635469 10003.6 0 0 0 
0.00585938 0.494141 0.00100016 1.00035 1.00016e-06 1000 1.00036 1.00135 -0.00446787 -0.00379773 10003.6 0 0 0 
0.00585938 0.498047 0.000999976 1.00035 9.99976e-07 1000 1.00035 1.00135 -0.0044661 -0.00143249 10003.5 0 0 0 
0.00976562 0.00195312 1000.14 8.92995e-07 0.999999 1000.14 1.14199 1000.14 0.0020475 -0.000663741 11419.9 0 0 0 
0.00976562 0.00585938 1000.14 9.22859e-07 0.999999 1000.14 1.13894 1000.14 0.00204942 -0.00150803 11389.4 0 0 0 
0.00976562 0.00976562 1000.14 9.68996e-07 0.999999 1000.14 1.13719 1000.14 0.00205421 -0.00253016 11371.9 0 0 0 
0.00976562 0.0136719 1000.13 1.01383e-06 0.999999 1000.13 1.13456 1000.13 0.00206157 -0.00348358 11345.6 0 0 0 
0.00976562 0.0175781 1000.13 1.04493e-06 0.999999 1000.13 1.13233 1000.13 0.0020706 -0.00449776 11323.3 0 0 0 
0.00976562 0.0214844 1000.13 1.05819e-06 0.999999 1000.13 1.12983 1000.13 0.00208029 -0.00549093 11298.3 0 0 0 
0.00976562 0.0253906 1000.13 1.05559e-06 0.999999 1000.13 1.12749 1000.13 0.00208995 -0.00650472 11274.9 0 0 0 
0.00976562 0.0292969 1000.12 1.04254e-06 0.999999 1000.13 1.12506 1000.12 0.00209935 -0.00751301 11250.6 0 0 0 
0.00976562 0.0332031 1000.12 1.02529e-06 0.999999 1000.12 1.12269 1000.12 0.00210862 -0.00852996 11226.9 0 0 0 
0.00976562 0.0371094 1000.12 1.00913e-06 0.999999 1000.12 1.12029 1000.12 0.00211815 -0.00954695 11202.9 0 0 0 
0.00976562 0.0410156 1000.12 9.97404e-07 0.999999 1000.12 1.11793 1000.12 0.00212838 -0.010569 11179.3 0 0 0 
0.00976562 0.0449219 1000.11 9.91296e-07 0.999999 1000.12 1.11556 1000.11 0.00213969 -0.0115936 11155.6 0 0 0 
0.00976562 0.0488281 1000.11 9.90237e-07 0.999999 1000.11 1.1132 1000.11 0.00215233 -0.0126228 11132 0 0 0 
0.00976562 0.0527344 1000.11 9.92638e-07 0.999999 1000.11 1.11085 1000.11 0.00216635 -0.0136562 11108.5 0 0 0 
0.00976562 0.0566406 1000.11 9.96619e-07 0.999999 1000.11 1.10851 1000.11 0.00218173 -0.0146948 11085.1 0 0 0 
0.00976562 0.0605469 1000.11 1.00052e-06 0.999999 1000.11 1.10618 1000.11 0.00219834 -0.0157387 11061.8 0 0 0 
0.00976562 0.0644531 1000.1 1.00314e-06 0.999999 1000.1 1.10386 1000.1 0.0022161 -0.0167886 11038.6 0 0 0 
0.00976562 0.0683594 1000.1 1.0038e-06 0.999999 1000.1 1.10154 1000.1 0.00223492 -0.0178447 11015.4 0 0 0 