TITLE=FvSolution
VARIABLES=X Y RHO1Z1 RHO2Z2 Z1 RHO1 RHO2 RHO U V PRE theta lambdaX lambdaY 
ZONE T=TA, I=128, J=128, DATAPACKING = POINT
0.00195312 0.00195312 1000.08 9.39606e-07 0.999999 1000.09 1.08574 1000.08 -0.000850737 0.000692431 10857.4 0 0 0 
0.00195312 0.00585938 1000.08 9.4983e-07 0.999999 1000.08 1.08286 1000.08 -0.000849536 0.00255878 10828.6 0 0 0 
0.00195312 0.00976562 1000.08 9.83099e-07 0.999999 1000.08 1.081 1000.08 -0.000846754 0.0042353 10810 0 0 0 
0.00195312 0.0136719 1000.08 1.01843e-06 0.999999 1000.08 1.07841 1000.08 -0.000842675 0.0059698 10784.1 0 0 0 
0.00195312 0.0175781 1000.08 1.0311e-06 0.999999 1000.08 1.07625 1000.08 -0.000837992 0.00764591 10762.5 0 0 0 
0.00195312 0.0214844 1000.07 1.02767e-06 0.999999 1000.07 1.07388 1000.07 -0.000833532 0.00933595 10738.8 0 0 0 
0.00195312 0.0253906 1000.07 1.02256e-06 0.999999 1000.07 1.07169 1000.07 -0.000830079 0.0110025 10716.9 0 0 0 
0.00195312 0.0292969 1000.07 1.01745e-06 0.999999 1000.07 1.06944 1000.07 -0.000828247 0.0126719 10694.4 0 0 0 
0.00195312 0.0332031 1000.07 1.0125e-06 0.999999 1000.07 1.06728 1000.07 -0.000828401 0.0143345 10672.8 0 0 0 
0.00195312 0.0371094 1000.06 1.00783e-06 0.999999 1000.07 1.06512 1000.06 -0.000830586 0.0160022 10651.2 0 0 0 
0.00195312 0.0410156 1000.06 1.00363e-06 0.999999 1000.06 1.06301 1000.06 -0.000834505 0.0176743 10630.1 0 0 0 
0.00195312 0.0449219 1000.06 1.00009e-06 0.999999 1000.06 1.06092 1000.06 -0.000839547 0.0193563 10609.2 0 0 0 
0.00195312 0.0488281 1000.06 9.97356e-07 0.999999 1000.06 1.05888 1000.06 -0.000844918 0.0210482 10588.8 0 0 0 
0.00195312 0.0527344 1000.06 9.95533e-07 0.999999 1000.06 1.05686 1000.06 -0.00084984 0.0227507 10568.6 0 0 0 
0.00195312 0.0566406 1000.05 9.94645e-07 0.999999 1000.05 1.05488 1000.05 -0.000853794 0.0244618 10548.8 0 0 0 
0.00195312 0.0605469 1000.05 9.94638e-07 0.999999 1000.05 1.05293 1000.05 -0.000856726 0.0261797 10529.3 0 0 0 
0.00195312 0.0644531 1000.05 9.95378e-07 0.999999 1000.05 1.05101 1000.05 -0.000859187 0.0279026 10510.1 0 0 0 
0.00195312 0.0683594 1000.05 9.96656e-07 0.999999 1000.05 1.04913 1000.05 -0.000862382 0.029631 10491.3 0 0 0 
0.00195312 0.0722656 1000.05 9.98217e-07 0.999999 1000.05 1.04728 1000.05 -0.000868107 0.0313678 10472.8 0 0 0 
0.00195312 0.0761719 1000.04 9.99798e-07 0.999999 1000.05 1.04546 1000.04 -0.000878538 0.0331202 10454.6 0 0 0 
0.00195312 0.0800781 1000.04 1.00118e-06 0.999999 1000.04 1.04367 1000.04 -0.000895796 0.0348996 10436.7 0 0 -0.000830948 
0.00195312 0.0839844 1000.04 1.0022e-06 0.999999 1000.04 1.04191 1000.04 -0.000921295 0.0367212 10419.1 0 0 -0.000830948 
0.00195312 0.0878906 1000.04 1.00282e-06 0.999999 1000.04 1.04018 1000.04 -0.000955023 0.0386016 10401.8 0 0 0.00340766 
0.00195312 0.0917969 1000.04 1.00306e-06 0.999999 1000.04 1.03848 1000.04 -0.000995058 0.0405556 10384.8 0 0 0.00340766 
0.00195312 0.0957031 1000.04 1.00303e-06 0.999999 1000.04 1.03682 1000.04 -0.00103766 0.0425925 10368.2 0 0 0 
0.00195312 0.0996094 1000.03 1.0029e-06 0.999999 1000.04 1.03518 1000.03 -0.00107807 0.0447126 10351.8 0 0 0 
0.00195312 0.103516 1000.03 1.00473e-06 0.999999 1000.03 1.03357 1000.03 -0.00111192 0.0469073 10335.7 0 0 0 
0.00195312 0.107422 1000.03 1.01495e-06 0.999999 1000.03 1.03198 1000.03 -0.00113664 0.0491606 10319.8 0 0 0 
0.00195312 0.111328 1000.03 1.0382e-06 0.999999 1000.03 1.03043 1000.03 -0.00115241 0.0514543 10304.3 0 0 0 
0.00195312 0.115234 1000.03 1.07594e-06 0.999999 1000.03 1.0289 1000.03 -0.00116187 0.0537733 10289 0 0 0 
0.00195312 0.119141 1000.03 1.12697e-06 0.999999 1000.03 1.02739 1000.03 -0.00116904 0.056109 10273.9 0 0 0 
0.00195312 0.123047 1000.02 1.18853e-06 0.999999 1000.03 1.02592 1000.02 -0.00117768 0.0584608 10259.2 0 0 0 
0.00195312 0.126953 1000.02 1.25807e-06 0.999999 1000.02 1.02446 1000.02 -0.00119009 0.0608338 10244.6 0 0 0 
0.00195312 0.130859 1000.02 1.33586e-06 0.999999 1000.02 1.02304 1000.02 -0.00120677 0.063236 10230.4 0 0 0 
0.00195312 0.134766 1000.02 1.42879e-06 0.999999 1000.02 1.02163 1000.02 -0.00122656 0.0656745 10216.3 0 0 0 
0.00195312 0.138672 1000.02 1.55745e-06 0.999998 1000.02 1.02025 1000.02 -0.00124732 0.068153 10202.5 0 0 0 
0.00195312 0.142578 1000.02 1.99446e-06 0.999998 1000.02 1.0189 1000.02 -0.0012667 0.070671 10189 0 0 0 
0.00195312 0.146484 1000.01 3.5604e-06 0.999997 1000.02 1.01757 1000.01 -0.00128306 0.0732237 10175.7 0 0 0 
0.00195312 0.150391 1000.01 6.76593e-06 0.999993 1000.02 1.01627 1000.01 -0.00129603 0.0758048 10162.7 0 0 0 
0.00195312 0.154297 1000 1.16337e-05 0.999989 1000.01 1.01499 1000 -0.00130651 0.0784083 10149.9 0 0 0 
0.00195312 0.158203 999.996 1.78394e-05 0.999982 1000.01 1.01373 999.996 -0.00131628 0.0810314 10137.3 0 0 0 
0.00195312 0.162109 999.988 2.49489e-05 0.999975 1000.01 1.01249 999.988 -0.00132746 0.0836749 10124.9 0 -0.000277823 0 
0.00195312 0.166016 999.979 3.26836e-05 0.999968 1000.01 1.01128 999.979 -0.00134205 0.086344 10112.8 0 0 0 
0.00195312 0.169922 999.969 4.10308e-05 0.999959 1000.01 1.01009 999.97 -0.00136176 0.0890471 10100.9 0 0 0 
0.00195312 0.173828 999.959 5.01361e-05 0.99995 1000.01 1.00892 999.959 -0.00138772 0.0917958 10089.2 0 0 0 
0.00195312 0.177734 999.948 6.00218e-05 0.99994 1000.01 1.00777 999.948 -0.00142015 0.0946027 10077.7 0 0 0 
0.00195312 0.181641 999.937 7.04151e-05 0.99993 1000.01 1.00663 999.937 -0.00145781 0.0974797 10066.3 0 0 0 
0.00195312 0.185547 999.925 8.10518e-05 0.999919 1000.01 1.00552 999.925 -0.00149763 0.100434 10055.2 0 0 0 
0.00195312 0.189453 999.864 0.000140762 0.99986 1000 1.00442 999.864 -0.00153497 0.103466 10044.2 0 0 0 
0.00195312 0.193359 999.564 0.000440625 0.999561 1000 1.00333 999.565 -0.0015657 0.106569 10033.3 0 0 0 
0.00195312 0.197266 998.858 0.001147 0.998856 1000 1.00225 998.859 -0.00158979 0.109731 10022.5 0 0 0 
0.00195312 0.201172 997.635 0.00236932 0.997634 1000 1.0012 997.637 -0.00161228 0.112949 10012 0 0 0 
0.00195312 0.205078 995.862 0.00413894 0.995862 1000 1.0002 995.866 -0.00164138 0.116233 10002 0 0.00135314 0 
0.00195312 0.208984 993.595 0.00639985 0.993595 999.999 0.999273 993.601 -0.00168534 0.119608 9992.73 0 0.00128769 0 
0.00195312 0.212891 990.95 0.00903468 0.990951 999.998 0.998432 990.959 -0.00174988 0.123111 9984.32 0 0.000161633 0 
0.00195312 0.216797 988.038 0.0119319 0.988041 999.998 0.997707 988.05 -0.00183644 0.12678 9977.07 0 0.00115434 0 
0.00195312 0.220703 984.902 0.0150513 0.984905 999.997 0.997125 984.917 -0.00194146 0.130652 9971.25 0 0 0 
0.00195312 0.224609 981.478 0.0184573 0.981482 999.997 0.9967 981.497 -0.00205661 0.134749 9967 0 0 0 
0.00195312 0.228516 977.458 0.0224579 0.977462 999.996 0.996434 977.481 -0.00216916 0.139077 9964.34 0 0.00109018 0 
0.00195312 0.232422 971.549 0.0283434 0.971552 999.996 0.996332 971.577 -0.00226249 0.143628 9963.32 0 0.000720219 0 
0.00195312 0.236328 958.524 0.0413226 0.958527 999.996 0.996375 958.565 -0.00231798 0.148358 9963.75 0 0 0.35 
0.00195312 0.240234 928.279 0.0714763 0.928283 999.997 0.996639 928.351 -0.0023237 0.153232 9966.39 0 0 0.35 
0.00195312 0.244141 852.478 0.147098 0.85248 999.997 0.997138 852.625 -0.00228224 0.158208 9971.38 0 0 0.35 
0.00195312 0.248047 646.383 0.352877 0.646384 999.998 0.997911 646.736 -0.00221122 0.1633 9979.11 0 0 0.35 
0.00195312 0.251953 331.901 0.667222 0.331901 999.999 0.998688 332.568 -0.00213132 0.168384 9986.88 0 0 0.35 
0.00195312 0.255859 140.136 0.85918 0.140136 999.999 0.999205 140.995 -0.00206784 0.173192 9992.05 0 0 0.35 
0.00195312 0.259766 70.2259 0.92933 0.0702259 1000 0.999522 71.1552 -0.00206353 0.177721 9995.22 0 0 0.35 
0.00195312 0.263672 41.2933 0.958453 0.0412933 1000 0.999735 42.2518 -0.00214949 0.182098 9997.35 0 0 0.35 
0.00195312 0.267578 28.9706 0.970924 0.0289706 1000 0.999891 29.9415 -0.00233632 0.186667 9998.91 0 0 0 
0.00195312 0.271484 23.4756 0.97655 0.0234756 1000 1.00003 24.4521 -0.00260417 0.191595 10000.3 0 0 0 
0.00195312 0.275391 19.6228 0.980522 0.0196228 1000 1.00015 20.6033 -0.00290902 0.19704 10001.5 0 0 0 
0.00195312 0.279297 16.0997 0.984152 0.0160997 1000 1.00026 17.0838 -0.00319712 0.20303 10002.6 0 0 0 
0.00195312 0.283203 12.6795 0.987662 0.0126795 1000 1.00035 13.6671 -0.0034154 0.209494 10003.5 0 0 0 
0.00195312 0.287109 9.44563 0.990968 0.00944563 1000 1.00042 10.4366 -0.00350761 0.216249 10004.2 0 0 0 
0.00195312 0.291016 6.56263 0.993904 0.00656263 1000 1.00047 7.55654 -0.00340684 0.222991 10004.7 0 0 0 
0.00195312 0.294922 4.17369 0.996331 0.00417369 1000 1.00051 5.17003 -0.00303294 0.229269 10005.1 0 0 0 
0.00195312 0.298828 2.36801 0.998161 0.00236801 1000 1.00053 3.36617 -0.00233414 0.234477 10005.3 0 0 0 
0.00195312 0.302734 1.16788 0.999376 0.00116788 1000 1.00054 2.16726 -0.00134724 0.237984 10005.4 0 0 0 
0.00195312 0.306641 0.513385 1.00004 0.000513385 1000 1.00055 1.51342 -0.000187281 0.239323 10005.5 0 0 0 
0.00195312 0.310547 0.255433 1.0003 0.000255433 1000 1.00056 1.25574 0.000993733 0.238313 10005.6 0 0 0 
0.00195312 0.314453 0.181126 1.00039 0.000181126 1000 1.00057 1.18151 0.00205702 0.235055 10005.7 0 0 0 
0.00195312 0.318359 0.14342 1.00043 0.00014342 1000 1.00057 1.14385 0.00291909 0.229869 10005.7 0 0.000484323 0 
0.00195312 0.322266 0.110381 1.00047 0.000110381 1000 1.00058 1.11085 0.00353236 0.223209 10005.8 0 0 0 
0.00195312 0.326172 0.0796236 1.0005 7.96236e-05 1000 1.00058 1.08013 0.00389285 0.215587 10005.8 0 0 0 
0.00195312 0.330078 0.0521508 1.00054 5.21508e-05 1000 1.00059 1.05269 0.00404512 0.20747 10005.9 0 0 0 
0.00195312 0.333984 0.0299397 1.00056 2.99397e-05 1000 1.00059 1.0305 0.00404924 0.199211 10005.9 0 0 0 
0.00195312 0.337891 0.0145448 1.00058 1.45448e-05 1000 1.0006 1.01513 0.00395343 0.191053 10006 0 0 0 
0.00195312 0.341797 0.00621476 1.0006 6.21475e-06 1000 1.0006 1.00681 0.00379285 0.18316 10006 0 0 0 
0.00195312 0.345703 0.00330486 1.0006 3.30486e-06 1000 1.00061 1.00391 0.00359542 0.175632 10006.1 0 0 -0.00496629 
0.00195312 0.349609 0.00250586 1.00061 2.50586e-06 1000 1.00061 1.00311 0.00338493 0.168518 10006.1 0 0 -0.00496629 
0.00195312 0.353516 0.00209479 1.00061 2.09479e-06 1000 1.00061 1.00271 0.00318132 0.161826 10006.1 0 0 0 
0.00195312 0.357422 0.00179797 1.00062 1.79797e-06 1000 1.00062 1.00241 0.00299977 0.155526 10006.2 0 0 0 
0.00195312 0.361328 0.00155511 1.00062 1.55511e-06 1000 1.00062 1.00218 0.0028497 0.149563 10006.2 0 0 0 
0.00195312 0.365234 0.00135524 1.00062 1.35524e-06 1000 1.00063 1.00198 0.00273405 0.143873 10006.3 0 0 0 
0.00195312 0.369141 0.00120131 1.00063 1.20131e-06 1000 1.00063 1.00183 0.00264944 0.138388 10006.3 0 0 0 
0.00195312 0.373047 0.00109683 1.00063 1.09683e-06 1000 1.00063 1.00173 0.00258805 0.133056 10006.3 0 -0.000228965 0 
0.00195312 0.376953 0.00103937 1.00064 1.03937e-06 1000 1.00064 1.00168 0.00254033 0.127839 10006.4 0 0 0 
0.00195312 0.380859 0.00101736 1.00064 1.01736e-06 1000 1.00064 1.00166 0.00249783 0.122719 10006.4 0 0 0 
0.00195312 0.384766 0.00101167 1.00064 1.01166e-06 1000 1.00064 1.00166 0.00245489 0.117692 10006.4 0 0 0 
0.00195312 0.388672 0.00100911 1.00065 1.00911e-06 1000 1.00065 1.00166 0.00240921 0.112762 10006.5 0 0 0 
0.00195312 0.392578 0.00100704 1.00065 1.00704e-06 1000 1.00065 1.00166 0.00236121 0.107935 10006.5 0 0 0 
0.00195312 0.396484 0.00100523 1.00065 1.00523e-06 1000 1.00065 1.00166 0.00231294 0.103213 10006.5 0 0 0 
0.00195312 0.400391 0.00100366 1.00066 1.00366e-06 1000 1.00066 1.00166 0.00226682 0.0985955 10006.6 0 0 0 
0.00195312 0.404297 0.00100238 1.00066 1.00238e-06 1000 1.00066 1.00166 0.00222476 0.0940758 10006.6 0 -0.000530112 0 
0.00195312 0.408203 0.00100141 1.00066 1.00141e-06 1000 1.00066 1.00166 0.00218767 0.0896451 10006.6 0 0 0.00061743 
0.00195312 0.412109 0.00100074 1.00066 1.00074e-06 1000 1.00067 1.00167 0.00215542 0.0852935 10006.7 0 0 0.00132717 
0.00195312 0.416016 0.00100035 1.00067 1.00035e-06 1000 1.00067 1.00167 0.00212712 0.0810124 10006.7 0 0 0.000709737 
0.00195312 0.419922 0.0010002 1.00067 1.0002e-06 1000 1.00067 1.00167 0.00210155 0.0767951 10006.7 0 0 0 
0.00195312 0.423828 0.00100021 1.00067 1.00021e-06 1000 1.00067 1.00167 0.00207759 0.0726375 10006.7 0 0 0 
0.00195312 0.427734 0.00100032 1.00067 1.00032e-06 1000 1.00067 1.00167 0.00205444 0.0685374 10006.7 0 0 0.0011215 
0.00195312 0.431641 0.00100046 1.00067 1.00046e-06 1000 1.00068 1.00168 0.00203177 0.0644934 10006.8 0 0 0.0011215 
0.00195312 0.435547 0.0010006 1.00068 1.0006e-06 1000 1.00068 1.00168 0.00200967 0.0605046 10006.8 0 0 0 
0.00195312 0.439453 0.0010007 1.00068 1.0007e-06 1000 1.00068 1.00168 0.00198845 0.0565695 10006.8 0 0 0 
0.00195312 0.443359 0.00100077 1.00068 1.00077e-06 1000 1.00068 1.00168 0.00196853 0.0526857 10006.8 0 0 0 
0.00195312 0.447266 0.00100081 1.00068 1.00081e-06 1000 1.00068 1.00168 0.00195021 0.04885 10006.8 0 0 0 
0.00195312 0.451172 0.00100083 1.00068 1.00083e-06 1000 1.00068 1.00168 0.00193366 0.0450586 10006.8 0 0 0 
0.00195312 0.455078 0.00100084 1.00068 1.00084e-06 1000 1.00068 1.00168 0.00191884 0.0413079 10006.8 0 0 -0.000142182 
0.00195312 0.458984 0.00100084 1.00068 1.00084e-06 1000 1.00068 1.00168 0.0019056 0.037594 10006.8 0 0 -0.000142182 
0.00195312 0.462891 0.00100084 1.00068 1.00084e-06 1000 1.00068 1.00168 0.00189371 0.0339144 10006.8 0 0 0 
0.00195312 0.466797 0.00100084 1.00068 1.00084e-06 1000 1.00068 1.00168 0.00188299 0.0302646 10006.8 0 0 0 
0.00195312 0.470703 0.00100083 1.00068 1.00083e-06 1000 1.00068 1.00168 0.00187339 0.0266444 10006.8 0 0 0 
0.00195312 0.474609 0.0010008 1.00068 1.0008e-06 1000 1.00068 1.00168 0.00186502 0.0230457 10006.8 0 0 0 
0.00195312 0.478516 0.00100075 1.00068 1.00075e-06 1000 1.00068 1.00168 0.00185806 0.0194727 10006.8 0 0 0.00213352 
0.00195312 0.482422 0.00100068 1.00068 1.00068e-06 1000 1.00068 1.00168 0.00185267 0.0159068 10006.8 0 0 0.00148955 
0.00195312 0.486328 0.00100059 1.00068 1.00058e-06 1000 1.00068 1.00168 0.00184894 0.012368 10006.8 0 0 -0.000643973 
0.00195312 0.490234 0.00100049 1.00067 1.00049e-06 1000 1.00068 1.00167 0.0018467 0.00880369 10006.8 0 0 0 
0.00195312 0.494141 0.00100041 1.00067 1.00041e-06 1000 1.00067 1.00167 0.00184566 0.00528171 10006.7 0 0 0 
0.00195312 0.498047 0.00100036 1.00067 1.00036e-06 1000 1.00067 1.00167 0.00184536 0.00161482 10006.7 0 0 0 
0.00585938 0.00195312 1000.08 9.39926e-07 0.999999 1000.09 1.0856 1000.08 -0.00253755 0.000691356 10856 0 0 0 
0.00585938 0.00585938 1000.08 9.5015e-07 0.999999 1000.08 1.08272 1000.08 -0.00253402 0.00255562 10827.2 0 0 0 
0.00585938 0.00976562 1000.08 9.83421e-07 0.999999 1000.08 1.08086 1000.08 -0.00252584 0.0042303 10808.6 0 0 0 
0.00585938 0.0136719 1000.08 1.01875e-06 0.999999 1000.08 1.07826 1000.08 -0.00251388 0.00596339 10782.6 0 0 0 
0.00585938 0.0175781 1000.08 1.03143e-06 0.999999 1000.08 1.07611 1000.08 -0.00250015 0.00763868 10761.1 0 0 0 
0.00585938 0.0214844 1000.07 1.02799e-06 0.999999 1000.07 1.07374 1000.07 -0.00248708 0.00932852 10737.4 0 0 0 
0.00585938 0.0253906 1000.07 1.02288e-06 0.999999 1000.07 1.07155 1000.07 -0.00247696 0.0109955 10715.5 0 0 0 
0.00585938 0.0292969 1000.07 1.01778e-06 0.999999 1000.07 1.0693 1000.07 -0.0024716 0.0126656 10693 0 0 0 
0.00585938 0.0332031 1000.07 1.01282e-06 0.999999 1000.07 1.06714 1000.07 -0.00247207 0.014329 10671.4 0 0 0 
0.00585938 0.0371094 1000.06 1.00815e-06 0.999999 1000.06 1.06498 1000.06 -0.00247854 0.0159976 10649.8 0 0 0 
0.00585938 0.0410156 1000.06 1.00395e-06 0.999999 1000.06 1.06287 1000.06 -0.00249014 0.0176702 10628.7 0 0 0 
0.00585938 0.0449219 1000.06 1.0004e-06 0.999999 1000.06 1.06078 1000.06 -0.00250511 0.0193525 10607.8 0 0 0 
0.00585938 0.0488281 1000.06 9.97673e-07 0.999999 1000.06 1.05874 1000.06 -0.00252108 0.0210445 10587.4 0 0 0 
0.00585938 0.0527344 1000.06 9.9585e-07 0.999999 1000.06 1.05672 1000.06 -0.00253572 0.0227468 10567.2 0 0 0 
0.00585938 0.0566406 1000.05 9.94961e-07 0.999999 1000.05 1.05474 1000.05 -0.00254744 0.0244575 10547.4 0 0 0 
0.00585938 0.0605469 1000.05 9.94954e-07 0.999999 1000.05 1.05279 1000.05 -0.00255608 0.0261748 10527.9 0 0 0 
0.00585938 0.0644531 1000.05 9.95693e-07 0.999999 1000.05 1.05087 1000.05 -0.00256332 0.0278969 10508.7 0 0 0 
0.00585938 0.0683594 1000.05 9.96975e-07 0.999999 1000.05 1.04899 1000.05 -0.00257282 0.0296241 10489.9 0 0 0.000535473 
0.00585938 0.0722656 1000.05 9.98545e-07 0.999999 1000.05 1.04713 1000.05 -0.00258995 0.0313597 10471.3 0 0 0.000535473 
0.00585938 0.0761719 1000.04 1.00014e-06 0.999999 1000.05 1.04531 1000.04 -0.00262109 0.0331108 10453.1 0 0 0 
0.00585938 0.0800781 1000.04 1.00154e-06 0.999999 1000.04 1.04352 1000.04 -0.00267234 0.0348882 10435.2 0 0 -0.00057461 
0.00585938 0.0839844 1000.04 1.00258e-06 0.999999 1000.04 1.04176 1000.04 -0.0027476 0.0367061 10417.6 0 0 -0.00057461 
0.00585938 0.0878906 1000.04 1.0032e-06 0.999999 1000.04 1.04003 1000.04 -0.00284669 0.0385795 10400.3 0 0 0.00273128 
0.00585938 0.0917969 1000.04 1.00344e-06 0.999999 1000.04 1.03833 1000.04 -0.00296403 0.0405217 10383.3 0 0 0.00273128 
0.00585938 0.0957031 1000.04 1.00339e-06 0.999999 1000.04 1.03666 1000.04 -0.00308905 0.042541 10366.6 0 0 0 
0.00585938 0.0996094 1000.03 1.00325e-06 0.999999 1000.04 1.03502 1000.03 -0.00320844 0.0446391 10350.2 0 0 0 
0.00585938 0.103516 1000.03 1.00505e-06 0.999999 1000.03 1.03341 1000.03 -0.00331005 0.0468103 10334.1 0 0 0 
0.00585938 0.107422 1000.03 1.01525e-06 0.999999 1000.03 1.03182 1000.03 -0.00338682 0.0490439 10318.2 0 0 0 
0.00585938 0.111328 1000.03 1.03847e-06 0.999999 1000.03 1.03026 1000.03 -0.00343915 0.0513269 10302.6 0 0 0 
0.00585938 0.115234 1000.03 1.07619e-06 0.999999 1000.03 1.02873 1000.03 -0.00347425 0.0536488 10287.3 0 0 0 
0.00585938 0.119141 1000.03 1.12722e-06 0.999999 1000.03 1.02723 1000.03 -0.00350274 0.0560032 10272.3 0 0 0 
0.00585938 0.123047 1000.02 1.1888e-06 0.999999 1000.03 1.02575 1000.02 -0.00353424 0.0583878 10257.5 0 0 0 
0.00585938 0.126953 1000.02 1.25833e-06 0.999999 1000.02 1.02429 1000.02 -0.00357434 0.0608031 10242.9 0 0 0 
0.00585938 0.130859 1000.02 1.33607e-06 0.999999 1000.02 1.02286 1000.02 -0.00362376 0.06325 10228.6 0 0 0 
0.00585938 0.134766 1000.02 1.42896e-06 0.999999 1000.02 1.02146 1000.02 -0.00367925 0.0657284 10214.6 0 0 0 
0.00585938 0.138672 1000.02 1.55763e-06 0.999998 1000.02 1.02008 1000.02 -0.00373532 0.0682357 10200.8 0 0 0 
0.00585938 0.142578 1000.02 1.99484e-06 0.999998 1000.02 1.01873 1000.02 -0.00378639 0.070768 10187.3 0 0 0 
0.00585938 0.146484 1000.01 3.56125e-06 0.999996 1000.02 1.0174 1000.01 -0.00382904 0.0733204 10174 0 0 0 
0.00585938 0.150391 1000.01 6.76598e-06 0.999993 1000.02 1.01609 1000.01 -0.00386323 0.0758891 10160.9 0 0 0 
0.00585938 0.154297 1000 1.16326e-05 0.999989 1000.01 1.01481 1000 -0.00389204 0.0784724 10148.1 0 0 0 
0.00585938 0.158203 999.996 1.78447e-05 0.999982 1000.01 1.01355 999.996 -0.00392047 0.0810716 10135.5 0 0 0 
0.00585938 0.162109 999.988 2.49797e-05 0.999975 1000.01 1.01231 999.988 -0.00395419 0.0836909 10123.1 0 0 0 
0.00585938 0.166016 999.979 3.27596e-05 0.999968 1000.01 1.0111 999.979 -0.00399864 0.0863371 10111 0 0 0 
0.00585938 0.169922 999.969 4.11744e-05 0.999959 1000.01 1.00991 999.969 -0.00405845 0.0890194 10099.1 0 0 0.000315887 
0.00585938 0.173828 999.959 5.03607e-05 0.99995 1000.01 1.00873 999.959 -0.00413674 0.0917492 10087.3 0 0 0.000315887 
0.00585938 0.177734 999.948 6.03262e-05 0.99994 1000.01 1.00758 999.948 -0.00423388 0.0945384 10075.8 0 0 0 
0.00585938 0.181641 999.936 7.07828e-05 0.99993 1000.01 1.00645 999.936 -0.00434588 0.0973977 10064.5 0 0 0 
0.00585938 0.185547 999.924 8.14573e-05 0.999919 1000.01 1.00534 999.924 -0.00446352 0.100333 10053.4 0 0 0 
0.00585938 0.189453 999.864 0.000141167 0.999859 1000 1.00424 999.864 -0.00457405 0.103343 10042.4 0 0 0 
0.00585938 0.193359 999.564 0.00044098 0.99956 1000 1.00317 999.564 -0.00466724 0.106423 10031.7 0 0 0 
0.00585938 0.197266 998.857 0.00114728 0.998855 1000 1.00211 998.858 -0.00474342 0.109569 10021.1 0 0 0 
0.00585938 0.201172 997.634 0.00236966 0.997633 1000 1.00109 997.636 -0.00481631 0.112781 10010.9 0 0 0 
0.00585938 0.205078 995.861 0.00413943 0.995861 1000 1.00011 995.865 -0.00490854 0.116071 10001.1 0 0.00135314 0 
0.00585938 0.208984 993.594 0.0064005 0.993594 999.999 0.999191 993.6 -0.00504367 0.119461 9991.91 0 0.00128769 0 
0.00585938 0.212891 990.948 0.00903549 0.99095 999.998 0.998359 990.957 -0.00523822 0.122983 9983.59 0 0.000161633 0 
0.00585938 0.216797 988.037 0.0119329 0.988039 999.998 0.997641 988.049 -0.0054961 0.126673 9976.41 0 0.00115434 0 
0.00585938 0.220703 984.9 0.0150525 0.984903 999.997 0.997065 984.915 -0.00580632 0.130561 9970.65 0 0 0 
0.00585938 0.224609 981.476 0.0184586 0.981479 999.997 0.996645 981.494 -0.00614404 0.134662 9966.45 0 0 0 
0.00585938 0.228516 977.456 0.0224593 0.977459 999.996 0.996382 977.478 -0.00647157 0.138977 9963.82 0 0.00109018 0 
0.00585938 0.232422 971.546 0.0283451 0.971549 999.996 0.996284 971.574 -0.00674148 0.143497 9962.84 0 0.000720219 0 
0.00585938 0.236328 958.52 0.0413247 0.958523 999.996 0.996333 958.561 -0.00690173 0.148182 9963.33 0 0 0.35 
0.00585938 0.240234 928.274 0.0714794 0.928277 999.997 0.996603 928.345 -0.00691566 0.153008 9966.03 0 0 0.35 
0.00585938 0.244141 852.467 0.147104 0.85247 999.997 0.997111 852.614 -0.00678804 0.157946 9971.11 0 0 0.35 
0.00585938 0.248047 646.362 0.35289 0.646364 999.998 0.997891 646.715 -0.00656751 0.163011 9978.91 0 0 0.35 
0.00585938 0.251953 331.887 0.667227 0.331888 999.999 0.998675 332.554 -0.00633196 0.16808 9986.75 0 0 0.35 
0.00585938 0.255859 140.135 0.859176 0.140136 999.999 0.999199 140.995 -0.00616843 0.172906 9991.99 0 0 0.35 
0.00585938 0.259766 70.2277 0.929325 0.0702277 1000 0.999519 71.157 -0.00618542 0.177506 9995.19 0 0 0.35 
0.00585938 0.263672 41.2952 0.958449 0.0412952 1000 0.999733 42.2536 -0.00646211 0.181988 9997.33 0 0 0.35 
0.00585938 0.267578 28.9722 0.970921 0.0289722 1000 0.99989 29.9431 -0.00702176 0.186671 9998.9 0 0 0 
0.00585938 0.271484 23.4771 0.976547 0.0234771 1000 1.00002 24.4536 -0.00780593 0.191684 10000.2 0 0 0 
0.00585938 0.275391 19.624 0.980519 0.019624 1000 1.00015 20.6046 -0.00869103 0.197158 10001.5 0 0 0 
0.00585938 0.279297 16.1007 0.984149 0.0161007 1000 1.00025 17.0848 -0.00952366 0.203108 10002.5 0 0 0 
0.00585938 0.283203 12.6802 0.98766 0.0126802 1000 1.00034 13.6678 -0.0101482 0.209471 10003.4 0 0 0 
0.00585938 0.287109 9.44597 0.990966 0.00944597 1000 1.00042 10.4369 -0.0104062 0.216078 10004.2 0 0 0 
0.00585938 0.291016 6.56263 0.993903 0.00656263 1000 1.00047 7.55653 -0.010109 0.222661 10004.7 0 0 0 
0.00585938 0.294922 4.17332 0.99633 0.00417332 1000 1.00051 5.16965 -0.00901054 0.228807 10005.1 0 0 0 
0.00585938 0.298828 2.36733 0.998161 0.00236733 1000 1.00053 3.36549 -0.00693555 0.233932 10005.3 0 0 0 
0.00585938 0.302734 1.167 0.999376 0.001167 1000 1.00054 2.16637 -0.0039942 0.237398 10005.4 0 0 0 
0.00585938 0.306641 0.512751 1.00004 0.000512751 1000 1.00055 1.51279 -0.000545598 0.238735 10005.5 0 0 0 
0.00585938 0.310547 0.25552 1.0003 0.00025552 1000 1.00056 1.25582 0.00295591 0.237758 10005.6 0 0 -0.000444621 
0.00585938 0.314453 0.181292 1.00038 0.000181292 1000 1.00057 1.18168 0.00612155 0.234546 10005.7 0 0 -0.000444621 
0.00585938 0.318359 0.14344 1.00043 0.00014344 1000 1.00057 1.14387 0.00869452 0.229404 10005.7 0 0 0 
0.00585938 0.322266 0.110378 1.00047 0.000110378 1000 1.00058 1.11085 0.0105231 0.22279 10005.8 0 0 0 
0.00585938 0.326172 0.0796197 1.0005 7.96197e-05 1000 1.00058 1.08012 0.0115922 0.215222 10005.8 0 0 0 
0.00585938 0.330078 0.052148 1.00054 5.21479e-05 1000 1.00059 1.05268 0.0120427 0.20717 10005.9 0 0 0 
0.00585938 0.333984 0.0299382 1.00056 2.99382e-05 1000 1.00059 1.0305 0.0120579 0.198977 10005.9 0 0 0 
0.00585938 0.337891 0.0145443 1.00058 1.45443e-05 1000 1.0006 1.01513 0.0117776 0.190876 10006 0 0 0 
0.00585938 0.341797 0.00621445 1.0006 6.21444e-06 1000 1.0006 1.00681 0.0113041 0.183028 10006 0 0 0 
0.00585938 0.345703 0.00330419 1.0006 3.30419e-06 1000 1.00061 1.00391 0.0107202 0.175533 10006.1 0 0 -0.0049637 
0.00585938 0.349609 0.00250516 1.00061 2.50516e-06 1000 1.00061 1.00311 0.0100966 0.168441 10006.1 0 0 -0.0049637 
0.00585938 0.353516 0.0020943 1.00061 2.0943e-06 1000 1.00061 1.00271 0.00949251 0.161762 10006.1 0 0 0 
0.00585938 0.357422 0.00179758 1.00062 1.79758e-06 1000 1.00062 1.00241 0.00895327 0.155469 10006.2 0 0 0 
0.00585938 0.361328 0.00155481 1.00062 1.55481e-06 1000 1.00062 1.00218 0.008507 0.149509 10006.2 0 0 0 
0.00585938 0.365234 0.00135503 1.00062 1.35503e-06 1000 1.00063 1.00198 0.0081626 0.14382 10006.3 0 0 0 
0.00585938 0.369141 0.00120124 1.00063 1.20124e-06 1000 1.00063 1.00183 0.00791029 0.138336 10006.3 0 0 0 
0.00585938 0.373047 0.00109688 1.00063 1.09688e-06 1000 1.00063 1.00173 0.00772684 0.133005 10006.3 0 0 0 
0.00585938 0.376953 0.00103943 1.00064 1.03943e-06 1000 1.00064 1.00168 0.00758406 0.12779 10006.4 0 0 0 
0.00585938 0.380859 0.00101733 1.00064 1.01733e-06 1000 1.00064 1.00166 0.00745688 0.122673 10006.4 0 0 0 
0.00585938 0.384766 0.00101163 1.00064 1.01163e-06 1000 1.00064 1.00166 0.00732862 0.11765 10006.4 0 0 0 
0.00585938 0.388672 0.0010091 1.00065 1.0091e-06 1000 1.00065 1.00166 0.0071924 0.112724 10006.5 0 0 0 
0.00585938 0.392578 0.00100704 1.00065 1.00704e-06 1000 1.00065 1.00166 0.00704948 0.1079 10006.5 0 0 0 
0.00585938 0.396484 0.00100522 1.00065 1.00522e-06 1000 1.00065 1.00166 0.00690584 0.103181 10006.5 0 -0.000265018 0 
0.00585938 0.400391 0.00100366 1.00066 1.00366e-06 1000 1.00066 1.00166 0.0067686 0.0985654 10006.6 0 0.00108885 0 
0.00585938 0.404297 0.00100238 1.00066 1.00238e-06 1000 1.00066 1.00166 0.00664336 0.0940471 10006.6 0 0 0 
0.00585938 0.408203 0.00100141 1.00066 1.00141e-06 1000 1.00066 1.00166 0.00653278 0.0896174 10006.6 0 0 0.000923628 
0.00585938 0.412109 0.00100074 1.00066 1.00074e-06 1000 1.00067 1.00167 0.0064365 0.0852667 10006.7 0 0 0.00163337 
0.00585938 0.416016 0.00100036 1.00067 1.00036e-06 1000 1.00067 1.00167 0.00635194 0.0809866 10006.7 0 0 0.000709737 
0.00585938 0.419922 0.0010002 1.00067 1.0002e-06 1000 1.00067 1.00167 0.00627554 0.0767705 10006.7 0 0 0 
0.00585938 0.423828 0.00100021 1.00067 1.00021e-06 1000 1.00067 1.00167 0.00620396 0.0726144 10006.7 0 0 0 
0.00585938 0.427734 0.00100032 1.00067 1.00032e-06 1000 1.00067 1.00167 0.00613489 0.0685158 10006.7 0 0 0.0011215 
0.00585938 0.431641 0.00100046 1.00067 1.00046e-06 1000 1.00068 1.00168 0.00606733 0.0644735 10006.8 0 0 0.00048152 
0.00585938 0.435547 0.0010006 1.00068 1.0006e-06 1000 1.00068 1.00168 0.00600149 0.0604863 10006.8 0 0 -0.000639982 
0.00585938 0.439453 0.0010007 1.00068 1.0007e-06 1000 1.00068 1.00168 0.00593829 0.0565526 10006.8 0 0 0 
0.00585938 0.443359 0.00100077 1.00068 1.00077e-06 1000 1.00068 1.00168 0.0058789 0.05267 10006.8 0 0 0 
0.00585938 0.447266 0.00100081 1.00068 1.00081e-06 1000 1.00068 1.00168 0.00582427 0.0488354 10006.8 0 0 0 
0.00585938 0.451172 0.00100083 1.00068 1.00083e-06 1000 1.00068 1.00168 0.00577488 0.0450452 10006.8 0 0 0 
0.00585938 0.455078 0.00100084 1.00068 1.00084e-06 1000 1.00068 1.00168 0.00573069 0.0412957 10006.8 0 0 -0.000142182 
0.00585938 0.458984 0.00100084 1.00068 1.00084e-06 1000 1.00068 1.00168 0.00569124 0.0375829 10006.8 0 0 -0.000142182 
0.00585938 0.462891 0.00100084 1.00068 1.00084e-06 1000 1.00068 1.00168 0.00565588 0.0339043 10006.8 0 0 0 
0.00585938 0.466797 0.00100084 1.00068 1.00084e-06 1000 1.00068 1.00168 0.00562405 0.0302556 10006.8 0 0 0 
0.00585938 0.470703 0.00100083 1.00068 1.00083e-06 1000 1.00068 1.00168 0.00559556 0.0266363 10006.8 0 0 0 
0.00585938 0.474609 0.0010008 1.00068 1.0008e-06 1000 1.00068 1.00168 0.00557064 0.0230386 10006.8 0 0 0 
0.00585938 0.478516 0.00100075 1.00068 1.00075e-06 1000 1.00068 1.00168 0.00554983 0.0194666 10006.8 0 0 0.00213135 
0.00585938 0.482422 0.00100068 1.00068 1.00068e-06 1000 1.00068 1.00168 0.00553366 0.0159018 10006.8 0 0 0.00135269 
0.00585938 0.486328 0.00100059 1.00068 1.00058e-06 1000 1.00068 1.00168 0.00552239 0.0123641 10006.8 0 0 -0.000778658 
0.00585938 0.490234 0.00100049 1.00067 1.00049e-06 1000 1.00068 1.00167 0.0055156 0.00880093 10006.8 0 0 0 
0.00585938 0.494141 0.00100041 1.00067 1.00041e-06 1000 1.00067 1.00167 0.00551243 0.00528004 10006.7 0 0 0 
0.00585938 0.498047 0.00100036 1.00067 1.00036e-06 1000 1.00067 1.00167 0.00551153 0.00161428 10006.7 0 0 0 
0.00976562 0.00195312 1000.08 9.40266e-07 0.999999 1000.09 1.08561 1000.08 -0.00422415 0.000688825 10856.1 0 0 0 
0.00976562 0.00585938 1000.08 9.50491e-07 0.999999 1000.08 1.08273 1000.08 -0.00421851 0.00254821 10827.3 0 0 0 
0.00976562 0.00976562 1000.08 9.83762e-07 0.999999 1000.08 1.08087 1000.08 -0.00420548 0.00421852 10808.7 0 0 0 
0.00976562 0.0136719 1000.08 1.01909e-06 0.999999 1000.08 1.07828 1000.08 -0.00418647 0.0059482 10782.8 0 0 0 
0.00976562 0.0175781 1000.08 1.03177e-06 0.999999 1000.08 1.07612 1000.08 -0.0041647 0.00762139 10761.2 0 0 0 
0.00976562 0.0214844 1000.07 1.02833e-06 0.999999 1000.07 1.07375 1000.07 -0.00414401 0.00931057 10737.5 0 0 0 
0.00976562 0.0253906 1000.07 1.02322e-06 0.999999 1000.07 1.07156 1000.07 -0.00412802 0.0109781 10715.6 0 0 0 
0.00976562 0.0292969 1000.07 1.01812e-06 0.999999 1000.07 1.06931 1000.07 -0.00411957 0.0126497 10693.1 0 0 0 
0.00976562 0.0332031 1000.07 1.01316e-06 0.999999 1000.07 1.06715 1000.07 -0.0041204 0.014315 10671.5 0 0 0 
0.00976562 0.0371094 1000.06 1.00849e-06 0.999999 1000.06 1.06499 1000.06 -0.00413085 0.0159851 10649.9 0 0 0 
0.00976562 0.0410156 1000.06 1.00428e-06 0.999999 1000.06 1.06288 1000.06 -0.00414966 0.0176588 10628.8 0 0 0 
0.00976562 0.0449219 1000.06 1.00074e-06 0.999999 1000.06 1.06079 1000.06 -0.00417407 0.0193413 10607.9 0 0 0 
0.00976562 0.0488281 1000.06 9.98005e-07 0.999999 1000.06 1.05875 1000.06 -0.00420029 0.0210329 10587.5 0 0 0 
0.00976562 0.0527344 1000.06 9.96182e-07 0.999999 1000.06 1.05673 1000.06 -0.00422443 0.0227345 10567.3 0 0 0 
0.00976562 0.0566406 1000.05 9.95294e-07 0.999999 1000.05 1.05475 1000.05 -0.00424373 0.0244445 10547.5 0 0 0 