TITLE=FvSolution
VARIABLES=X Y RHO1Z1 RHO2Z2 Z1 RHO1 RHO2 RHO U V PRE theta lambdaX lambdaY 
ZONE T=TA, I=128, J=128, DATAPACKING = POINT
0.00195312 0.00195312 1000.24 9.14081e-07 0.999999 1000.24 1.23578 1000.24 -0.00025912 8.44038e-05 12357.8 0 0 0 
0.00195312 0.00585938 1000.23 9.28516e-07 0.999999 1000.23 1.23244 1000.23 -0.000255274 0.000774416 12324.4 0 0 0 
0.00195312 0.00976562 1000.23 9.75516e-07 0.999999 1000.23 1.23045 1000.23 -0.000249832 0.00124957 12304.5 0 0 0 
0.00195312 0.0136719 1000.23 1.02555e-06 0.999999 1000.23 1.22765 1000.23 -0.000244275 0.00178529 12276.5 0 0 0 
0.00195312 0.0175781 1000.22 1.04406e-06 0.999999 1000.23 1.22526 1000.22 -0.000238203 0.00225638 12252.6 0 0 0 
0.00195312 0.0214844 1000.22 1.03877e-06 0.999999 1000.22 1.22257 1000.22 -0.000230578 0.00273915 12225.7 0 0 0 
0.00195312 0.0253906 1000.22 1.03041e-06 0.999999 1000.22 1.22001 1000.22 -0.000220868 0.00318782 12200.1 0 0 0 
0.00195312 0.0292969 1000.22 1.02235e-06 0.999999 1000.22 1.21733 1000.22 -0.000209581 0.00362417 12173.3 0 0 0 
0.00195312 0.0332031 1000.21 1.01534e-06 0.999999 1000.21 1.21467 1000.21 -0.00019825 0.00403214 12146.7 0 0 0 
0.00195312 0.0371094 1000.21 1.00965e-06 0.999999 1000.21 1.21196 1000.21 -0.000188936 0.00442219 12119.6 0 0 0 
0.00195312 0.0410156 1000.21 1.00518e-06 0.999999 1000.21 1.20923 1000.21 -0.000183403 0.00479528 12092.3 0 0 0 
0.00195312 0.0449219 1000.21 1.00174e-06 0.999999 1000.21 1.20647 1000.21 -0.000182302 0.00516254 12064.7 0 0 0 
0.00195312 0.0488281 1000.2 9.99183e-07 0.999999 1000.2 1.20369 1000.2 -0.000184748 0.00553034 12036.9 0 0 0.000392436 
0.00195312 0.0527344 1000.2 9.97391e-07 0.999999 1000.2 1.20088 1000.2 -0.000188539 0.00590458 12008.8 0 0 0.000392436 
0.00195312 0.0566406 1000.2 9.96301e-07 0.999999 1000.2 1.19805 1000.2 -0.00019091 0.00628456 11980.5 0 0 0.000166895 
0.00195312 0.0605469 1000.19 9.95848e-07 0.999999 1000.2 1.19519 1000.19 -0.000189525 0.00666536 11951.9 0 0 -3.70827e-05 
0.00195312 0.0644531 1000.19 9.95947e-07 0.999999 1000.19 1.1923 1000.19 -0.000183419 0.00703826 11923 0 0 -0.000203978 
0.00195312 0.0683594 1000.19 9.96483e-07 0.999999 1000.19 1.18939 1000.19 -0.00017366 0.00739492 11893.9 0 0 0 
0.00195312 0.0722656 1000.19 9.9731e-07 0.999999 1000.19 1.18645 1000.19 -0.000163551 0.00773128 11864.5 0 0 0.00160773 
0.00195312 0.0761719 1000.18 9.98273e-07 0.999999 1000.18 1.18349 1000.18 -0.000158144 0.00805173 11834.9 0 0 0.00138637 
0.00195312 0.0800781 1000.18 9.99225e-07 0.999999 1000.18 1.18051 1000.18 -0.000162957 0.0083712 11805.1 0 0 0.000384695 
0.00195312 0.0839844 1000.18 1.00003e-06 0.999999 1000.18 1.17751 1000.18 -0.000182265 0.00871447 11775.1 0 0 0.00341606 
0.00195312 0.0878906 1000.17 1.00058e-06 0.999999 1000.17 1.17448 1000.17 -0.000217857 0.00911243 11744.8 0 0 0.00281001 
0.00195312 0.0917969 1000.17 1.00084e-06 0.999999 1000.17 1.17143 1000.17 -0.000268979 0.00959704 11714.3 0 0 0 
0.00195312 0.0957031 1000.17 1.00079e-06 0.999999 1000.17 1.16836 1000.17 -0.00033305 0.010197 11683.6 0 0 0 
0.00195312 0.0996094 1000.16 1.00053e-06 0.999999 1000.17 1.16526 1000.16 -0.000406188 0.0109343 11652.6 0 0 0 
0.00195312 0.103516 1000.16 1.00016e-06 0.999999 1000.16 1.16215 1000.16 -0.000483334 0.0118222 11621.5 0 0 0 
0.00195312 0.107422 1000.16 9.9995e-07 0.999999 1000.16 1.15901 1000.16 -0.000558601 0.0128624 11590.1 0 0 0 
0.00195312 0.111328 1000.15 1.00311e-06 0.999999 1000.16 1.15586 1000.15 -0.00062613 0.0140451 11558.6 0 0 0 
0.00195312 0.115234 1000.15 1.01935e-06 0.999999 1000.15 1.15268 1000.15 -0.000681045 0.0153496 11526.8 0 0 0 
0.00195312 0.119141 1000.15 1.05522e-06 0.999999 1000.15 1.14949 1000.15 -0.000719988 0.0167472 11494.9 0 0 0 
0.00195312 0.123047 1000.15 1.11225e-06 0.999999 1000.15 1.14629 1000.15 -0.000741119 0.0182042 11462.9 0 0 0 
0.00195312 0.126953 1000.14 1.18783e-06 0.999999 1000.14 1.14306 1000.14 -0.000743857 0.0196845 11430.6 0 0 0 
0.00195312 0.130859 1000.14 1.27696e-06 0.999999 1000.14 1.13982 1000.14 -0.000728651 0.0211518 11398.2 0 0 0 
0.00195312 0.134766 1000.14 1.37411e-06 0.999999 1000.14 1.13657 1000.14 -0.000696933 0.0225716 11365.7 0 0 0 
0.00195312 0.138672 1000.13 1.4752e-06 0.999999 1000.13 1.1333 1000.13 -0.000651139 0.0239135 11333 0 0 0 
0.00195312 0.142578 1000.13 1.57991e-06 0.999999 1000.13 1.13002 1000.13 -0.000594685 0.0251524 11300.2 0 0 0 
0.00195312 0.146484 1000.13 1.69511e-06 0.999998 1000.13 1.12672 1000.13 -0.000531771 0.0262712 11267.2 0 0 0 
0.00195312 0.150391 1000.12 1.84205e-06 0.999998 1000.12 1.12342 1000.12 -0.000467036 0.0272615 11234.2 0 0 0 
0.00195312 0.154297 1000.12 2.3003e-06 0.999998 1000.12 1.1201 1000.12 -0.000405113 0.0281242 11201 0 0 0 
0.00195312 0.158203 1000.11 3.90855e-06 0.999997 1000.12 1.11678 1000.11 -0.000350262 0.0288692 11167.8 0 0 0 
0.00195312 0.162109 1000.11 7.18795e-06 0.999994 1000.11 1.11345 1000.11 -0.000306162 0.0295146 11134.5 0 0 0 
0.00195312 0.166016 1000.1 1.21722e-05 0.999989 1000.11 1.1101 1000.1 -0.000275828 0.030085 11101 0 0 0 
0.00195312 0.169922 1000.09 1.85511e-05 0.999983 1000.11 1.10675 1000.09 -0.000261451 0.0306103 11067.5 0 0 0 
0.00195312 0.173828 1000.08 2.58702e-05 0.999977 1000.1 1.1034 1000.08 -0.000264075 0.0311238 11034 0 0 0 
0.00195312 0.177734 1000.07 3.37069e-05 0.999969 1000.1 1.10004 1000.07 -0.000283302 0.0316592 11000.4 0 0 0 
0.00195312 0.181641 1000.06 4.17502e-05 0.999962 1000.1 1.09667 1000.06 -0.000317304 0.032248 10966.7 0 0 0 
0.00195312 0.185547 1000.05 4.97438e-05 0.999955 1000.09 1.0933 1000.05 -0.000363092 0.0329171 10933 0 0 0 
0.00195312 0.189453 1000.04 5.73484e-05 0.999947 1000.09 1.08992 1000.04 -0.000416783 0.0336862 10899.2 0 0 0 
0.00195312 0.193359 1000.03 6.40698e-05 0.999941 1000.09 1.08655 1000.03 -0.000473793 0.0345664 10865.5 0 0 0 
0.00195312 0.197266 1000.02 6.94057e-05 0.999936 1000.08 1.08317 1000.02 -0.000529101 0.0355594 10831.7 0 0 0 
0.00195312 0.201172 1000.01 7.32014e-05 0.999932 1000.08 1.07979 1000.01 -0.000577728 0.0366565 10797.9 0 0 0 
0.00195312 0.205078 999.977 0.000106926 0.999901 1000.08 1.07641 999.977 -0.000615439 0.0378398 10764.1 0 0 0.000714086 
0.00195312 0.208984 999.801 0.000291447 0.999728 1000.07 1.07304 999.802 -0.000639908 0.0390848 10730.4 0 0 0.00351536 
0.00195312 0.212891 999.38 0.000737694 0.99931 1000.07 1.06966 999.381 -0.000652142 0.0403649 10696.6 0 0 0.00351075 
0.00195312 0.216797 998.624 0.00153768 0.998558 1000.07 1.06628 998.626 -0.000656995 0.0416596 10662.8 0 0 0.00344585 
0.00195312 0.220703 997.469 0.00275692 0.997406 1000.06 1.06289 997.472 -0.000662294 0.0429607 10628.9 0 0 0.00273637 
0.00195312 0.224609 995.879 0.00442925 0.995819 1000.06 1.05948 995.883 -0.000676795 0.0442768 10594.8 0 0 0 
0.00195312 0.228516 993.848 0.00655576 0.993792 1000.06 1.05602 993.854 -0.000707636 0.0456327 10560.2 0 0.000312218 0.000124638 
0.00195312 0.232422 991.396 0.00911091 0.991344 1000.05 1.05251 991.405 -0.000758254 0.0470636 10525.1 0 0.000357561 0.000124638 
0.00195312 0.236328 988.56 0.01205 0.988512 1000.05 1.0489 988.572 -0.000827046 0.0486061 10489 0 0 0.00329079 
0.00195312 0.240234 985.397 0.0153091 0.985352 1000.05 1.04516 985.412 -0.000907079 0.0502879 10451.6 0 0 0.00329079 
0.00195312 0.244141 981.992 0.0187936 0.981951 1000.04 1.04128 982.011 -0.000987176 0.0521182 10412.8 0 0 0 
0.00195312 0.248047 978.455 0.0223848 0.978418 1000.04 1.03721 978.477 -0.00105425 0.0540842 10372.1 0 0 0 
0.00195312 0.251953 974.852 0.02601 0.97482 1000.03 1.03296 974.878 -0.0010968 0.0561511 10329.6 0 0 0 
0.00195312 0.255859 971.002 0.0298537 0.970975 1000.03 1.02854 971.032 -0.00110891 0.058275 10285.4 0 0.000658256 0 
0.00195312 0.259766 965.854 0.0349867 0.965831 1000.02 1.02394 965.889 -0.00109372 0.0603943 10239.4 0 0 0 
0.00195312 0.263672 954.98 0.0459027 0.954962 1000.02 1.01919 955.026 -0.00106413 0.0624523 10191.9 0 0 0.35 
0.00195312 0.267578 929.468 0.0715537 0.929455 1000.01 1.0143 929.54 -0.00104049 0.0643771 10143 0 0 0.35 
0.00195312 0.271484 868.061 0.133184 0.868053 1000.01 1.00938 868.194 -0.00104256 0.0660944 10093.8 0 0 0.35 
0.00195312 0.275391 696.104 0.305343 0.696101 1000 1.00475 696.41 -0.00107846 0.0673665 10047.5 0 0 0.35 
0.00195312 0.279297 388.406 0.612473 0.388405 1000 1.00144 389.018 -0.00114183 0.0680112 10014.4 0 0 0.35 
0.00195312 0.283203 168.185 0.83168 0.168185 1000 0.999838 169.017 -0.00123651 0.0683424 9998.38 0 0 0.35 
0.00195312 0.287109 85.5376 0.913656 0.0855377 999.999 0.999119 86.4512 -0.00135827 0.0690651 9991.19 0 0 0.35 
0.00195312 0.291016 54.1392 0.944665 0.0541393 999.999 0.998735 55.0839 -0.00147069 0.070235 9987.35 0 -0.000472299 0.35 
0.00195312 0.294922 41.0219 0.957529 0.041022 999.998 0.998489 41.9794 -0.00152669 0.0718141 9984.89 0 0 0.00633584 
0.00195312 0.298828 34.8453 0.963526 0.0348453 999.998 0.998313 35.8088 -0.00148188 0.0735821 9983.13 0 -0.000760695 0 
0.00195312 0.302734 30.4652 0.967774 0.0304652 999.998 0.998184 31.433 -0.00130234 0.0752957 9981.84 0 0 0 
0.00195312 0.306641 26.5332 0.971612 0.0265332 999.998 0.998095 27.5048 -0.000979157 0.0766661 9980.95 0 0 0 
0.00195312 0.310547 22.6586 0.975427 0.0226587 999.998 0.998042 23.6341 -0.0005357 0.077466 9980.42 0 0 0 
0.00195312 0.314453 18.799 0.979255 0.0187991 999.998 0.998017 19.7783 -3.21207e-05 0.0775054 9980.17 0 0 0 
0.00195312 0.318359 15.0569 0.982987 0.0150569 999.998 0.998014 16.0399 0.000422919 0.0767799 9980.14 0 0 -4.19411e-05 
0.00195312 0.322266 11.5705 0.986479 0.0115706 999.998 0.998026 12.557 0.000732509 0.0754489 9980.26 0 0 -0.00366541 
0.00195312 0.326172 8.4599 0.989602 0.00845992 999.998 0.998045 9.4495 0.000870077 0.0737859 9980.45 0 0 -0.00362347 
0.00195312 0.330078 5.81273 0.992263 0.00581274 999.998 0.998065 6.80499 0.000859248 0.0720879 9980.65 0 0 0 
0.00195312 0.333984 3.68993 0.9944 0.00368994 999.998 0.998083 4.68433 0.000732481 0.0705762 9980.83 0 0 0 
0.00195312 0.337891 2.11766 0.995983 0.00211766 999.998 0.998097 3.11364 0.000510682 0.0694402 9980.97 0 0 0 
0.00195312 0.341797 1.07342 0.997036 0.00107342 999.998 0.998107 2.07046 0.000232731 0.0688379 9981.07 0 0 0 
0.00195312 0.345703 0.481446 0.997634 0.000481447 999.998 0.998115 1.47908 -2.18835e-05 0.0687886 9981.15 0 0.000230229 0 
0.00195312 0.349609 0.22362 0.997897 0.000223621 999.998 0.99812 1.22152 -0.000143058 0.0691433 9981.2 0 0 0 
0.00195312 0.353516 0.15751 0.997968 0.00015751 999.998 0.998125 1.15548 -7.39251e-05 0.069554 9981.25 0 0 0 
0.00195312 0.357422 0.13254 0.997997 0.00013254 999.998 0.998129 1.13054 0.000133602 0.0696676 9981.29 0 0 0 
0.00195312 0.361328 0.106535 0.998026 0.000106535 999.998 0.998133 1.10456 0.000403163 0.0693053 9981.33 0 0 0 
0.00195312 0.365234 0.0796079 0.998056 7.96081e-05 999.998 0.998136 1.07766 0.000701911 0.06837 9981.36 0 0 0 
0.00195312 0.369141 0.0539561 0.998085 5.39562e-05 999.998 0.998139 1.05204 0.00100635 0.066828 9981.39 0 0 0 
0.00195312 0.373047 0.0322506 0.998109 3.22507e-05 999.998 0.998141 1.03036 0.00128732 0.0646964 9981.41 0 0 0.00355502 
0.00195312 0.376953 0.0163553 0.998127 1.63554e-05 999.998 0.998143 1.01448 0.0015107 0.0620571 9981.43 0 0 0.00355502 
0.00195312 0.380859 0.00677869 0.998139 6.7787e-06 999.998 0.998145 1.00492 0.00164676 0.0590563 9981.45 0 0 0 
0.00195312 0.384766 0.00263106 0.998144 2.63107e-06 999.998 0.998147 1.00078 0.00168536 0.0558837 9981.47 0 0.000369164 0 
0.00195312 0.388672 0.00180413 0.998146 1.80413e-06 999.998 0.998148 0.999951 0.00164126 0.0527219 9981.48 0 0 0 
0.00195312 0.392578 0.00165331 0.998148 1.65332e-06 999.998 0.998149 0.999801 0.00154357 0.049707 9981.49 0 0 0 
0.00195312 0.396484 0.00150735 0.998148 1.50735e-06 999.998 0.99815 0.999656 0.00142293 0.046914 9981.5 0 0 0 
0.00195312 0.400391 0.00136484 0.998149 1.36484e-06 999.998 0.998151 0.999514 0.00130479 0.044362 9981.51 0 0 0 
0.00195312 0.404297 0.00123194 0.99815 1.23194e-06 999.998 0.998151 0.999382 0.00120666 0.0420272 9981.51 0 0 0 
0.00195312 0.408203 0.00112144 0.99815 1.12144e-06 999.998 0.998151 0.999271 0.00113697 0.0398599 9981.51 0 0 0 
0.00195312 0.412109 0.00104646 0.99815 1.04646e-06 999.998 0.998151 0.999196 0.00109526 0.0378026 9981.51 0 0 0 
0.00195312 0.416016 0.00101112 0.99815 1.01112e-06 999.998 0.998151 0.999161 0.00107443 0.0358061 9981.51 0 0 0 
0.00195312 0.419922 0.00100311 0.998149 1.00311e-06 999.998 0.99815 0.999153 0.00106449 0.0338388 9981.5 0 0 0 
0.00195312 0.423828 0.00100153 0.998149 1.00153e-06 999.998 0.99815 0.999151 0.00105623 0.0318888 9981.5 0 0 0 
0.00195312 0.427734 0.00100054 0.998148 1.00054e-06 999.998 0.998149 0.999149 0.00104368 0.0299596 9981.49 0 0 0 
0.00195312 0.431641 0.000999775 0.998148 9.99777e-07 999.998 0.998149 0.999147 0.00102485 0.0280626 9981.49 0 0 0 
0.00195312 0.435547 0.000999076 0.998147 9.99078e-07 999.998 0.998148 0.999146 0.00100105 0.0262099 9981.48 0 0 0 
0.00195312 0.439453 0.000998423 0.998146 9.98425e-07 999.998 0.998147 0.999144 0.000975304 0.0244092 9981.47 0 0 0 
0.00195312 0.443359 0.000997894 0.998145 9.97896e-07 999.998 0.998145 0.999142 0.000950766 0.0226614 9981.45 0 0 0 
0.00195312 0.447266 0.000997595 0.998143 9.97597e-07 999.998 0.998144 0.999141 0.000929578 0.0209619 9981.44 0 0 0 
0.00195312 0.451172 0.000997571 0.998142 9.97573e-07 999.998 0.998143 0.999139 0.000912484 0.0193027 9981.43 0 0 0 
0.00195312 0.455078 0.000997767 0.99814 9.97769e-07 999.998 0.998141 0.999138 0.000899067 0.0176762 9981.41 0 0 0 
0.00195312 0.458984 0.000998062 0.998139 9.98064e-07 999.998 0.99814 0.999137 0.000888324 0.0160748 9981.4 0 0 0 
0.00195312 0.462891 0.000998334 0.998137 9.98335e-07 999.998 0.998138 0.999135 0.000879273 0.0144958 9981.38 0 0 0 
0.00195312 0.466797 0.000998503 0.998135 9.98505e-07 999.998 0.998136 0.999134 0.000871344 0.0129337 9981.36 0 0 0 
0.00195312 0.470703 0.000998546 0.998134 9.98548e-07 999.998 0.998135 0.999132 0.000864489 0.0113905 9981.35 0 0 0 
0.00195312 0.474609 0.000998483 0.998132 9.98485e-07 999.998 0.998133 0.99913 0.000859039 0.00985636 9981.33 0 0 0 
0.00195312 0.478516 0.000998352 0.99813 9.98354e-07 999.998 0.998131 0.999128 0.000855416 0.00834004 9981.31 0 0 0.00153434 
0.00195312 0.482422 0.000998192 0.998128 9.98194e-07 999.998 0.998129 0.999126 0.000853853 0.00681527 9981.29 0 0 0.00153434 
0.00195312 0.486328 0.00099803 0.998126 9.98032e-07 999.998 0.998127 0.999124 0.000854165 0.00531426 9981.27 0 0 0 
0.00195312 0.490234 0.000997888 0.998123 9.9789e-07 999.998 0.998124 0.999121 0.000855676 0.00376517 9981.24 0 0 -0.00103617 
0.00195312 0.494141 0.000997785 0.998121 9.97787e-07 999.998 0.998122 0.999119 0.000857331 0.00227359 9981.22 0 0 -0.00103617 
0.00195312 0.498047 0.000997731 0.998118 9.97733e-07 999.998 0.998119 0.999116 0.000858249 0.000598582 9981.19 0 0 0 
0.00585938 0.00195312 1000.23 9.14315e-07 0.999999 1000.24 1.23564 1000.23 -0.000762542 8.10044e-05 12356.4 0 0 0 
0.00585938 0.00585938 1000.23 9.28779e-07 0.999999 1000.23 1.2323 1000.23 -0.000751476 0.000765553 12323 0 0 0 
0.00585938 0.00976562 1000.23 9.75873e-07 0.999999 1000.23 1.23031 1000.23 -0.000736753 0.00123821 12303.1 0 0 0 
0.00585938 0.0136719 1000.23 1.02599e-06 0.999999 1000.23 1.22751 1000.23 -0.000721435 0.00177432 12275.1 0 0 0 
0.00585938 0.0175781 1000.22 1.04451e-06 0.999999 1000.23 1.22512 1000.22 -0.000704022 0.00224779 12251.2 0 0 0 
0.00585938 0.0214844 1000.22 1.03921e-06 0.999999 1000.22 1.22243 1000.22 -0.000681578 0.00273401 12224.3 0 0 0 
0.00585938 0.0253906 1000.22 1.03086e-06 0.999999 1000.22 1.21987 1000.22 -0.00065278 0.00318662 12198.7 0 0 0 
0.00585938 0.0292969 1000.22 1.02277e-06 0.999999 1000.22 1.21719 1000.22 -0.000619325 0.00362729 12171.9 0 0 0 
0.00585938 0.0332031 1000.21 1.01572e-06 0.999999 1000.21 1.21453 1000.21 -0.000585775 0.00404002 12145.3 0 0 0 
0.00585938 0.0371094 1000.21 1.00999e-06 0.999999 1000.21 1.21182 1000.21 -0.000558034 0.004435 12118.2 0 0 0 
0.00585938 0.0410156 1000.21 1.0055e-06 0.999999 1000.21 1.2091 1000.21 -0.000541008 0.00481231 12091 0 0 0 
0.00585938 0.0449219 1000.21 1.00205e-06 0.999999 1000.21 1.20634 1000.21 -0.000536355 0.00518158 12063.4 0 0 0 
0.00585938 0.0488281 1000.2 9.99495e-07 0.999999 1000.2 1.20356 1000.2 -0.00054143 0.00554741 12035.6 0 0 0.000392436 
0.00585938 0.0527344 1000.2 9.97723e-07 0.999999 1000.2 1.20075 1000.2 -0.000549977 0.0059142 12007.5 0 0 0.00102009 
0.00585938 0.0566406 1000.2 9.96659e-07 0.999999 1000.2 1.19791 1000.2 -0.00055431 0.00628075 11979.1 0 0 0.000794551 
0.00585938 0.0605469 1000.19 9.96225e-07 0.999999 1000.2 1.19505 1000.19 -0.000548179 0.00664297 11950.5 0 0 -3.67245e-05 
0.00585938 0.0644531 1000.19 9.96334e-07 0.999999 1000.19 1.19217 1000.19 -0.000529442 0.00699448 11921.7 0 0 -0.00020362 
0.00585938 0.0683594 1000.19 9.96871e-07 0.999999 1000.19 1.18926 1000.19 -0.000501841 0.00733074 11892.6 0 0 0 
0.00585938 0.0722656 1000.19 9.97693e-07 0.999999 1000.19 1.18633 1000.19 -0.000475293 0.00765213 11863.3 0 0 0.00120579 
0.00585938 0.0761719 1000.18 9.98639e-07 0.999999 1000.18 1.18337 1000.18 -0.000464213 0.007967 11833.7 0 0 0.000984439 
0.00585938 0.0800781 1000.18 9.99557e-07 0.999999 1000.18 1.18038 1000.18 -0.000483896 0.00829247 11803.8 0 0 0.000384695 
0.00585938 0.0839844 1000.18 1.00032e-06 0.999999 1000.18 1.17737 1000.18 -0.000546076 0.00865321 11773.7 0 0 0.00271356 
0.00585938 0.0878906 1000.17 1.00085e-06 0.999999 1000.17 1.17434 1000.17 -0.000655773 0.00907814 11743.4 0 0 0.00217554 
0.00585938 0.0917969 1000.17 1.0011e-06 0.999999 1000.17 1.17129 1000.17 -0.000810829 0.00959637 11712.9 0 0 6.80322e-05 
0.00585938 0.0957031 1000.17 1.00105e-06 0.999999 1000.17 1.16821 1000.17 -0.00100334 0.010233 11682.1 0 0 0 
0.00585938 0.0996094 1000.16 1.00077e-06 0.999999 1000.17 1.16512 1000.16 -0.00122109 0.0110059 11651.2 0 0 0 
0.00585938 0.103516 1000.16 1.0004e-06 0.999999 1000.16 1.162 1000.16 -0.00144866 0.0119232 11620 0 0 0 
0.00585938 0.107422 1000.16 1.00018e-06 0.999999 1000.16 1.15887 1000.16 -0.00166887 0.0129824 11588.7 0 0 0 
0.00585938 0.111328 1000.15 1.00332e-06 0.999999 1000.16 1.15571 1000.15 -0.00186527 0.0141714 11557.1 0 0 0 
0.00585938 0.115234 1000.15 1.01955e-06 0.999999 1000.15 1.15254 1000.15 -0.00202447 0.0154699 11525.4 0 0 0 
0.00585938 0.119141 1000.15 1.05544e-06 0.999999 1000.15 1.14935 1000.15 -0.00213719 0.0168514 11493.5 0 0 0 
0.00585938 0.123047 1000.15 1.11249e-06 0.999999 1000.15 1.14614 1000.15 -0.00219823 0.0182858 11461.4 0 0 0 
0.00585938 0.126953 1000.14 1.18808e-06 0.999999 1000.14 1.14292 1000.14 -0.00220567 0.0197403 11429.2 0 0 0 
0.00585938 0.130859 1000.14 1.27719e-06 0.999999 1000.14 1.13968 1000.14 -0.0021605 0.0211815 11396.8 0 0 0 
0.00585938 0.134766 1000.14 1.37429e-06 0.999999 1000.14 1.13642 1000.14 -0.00206656 0.022577 11364.2 0 0 0 
0.00585938 0.138672 1000.13 1.47539e-06 0.999999 1000.13 1.13316 1000.13 -0.00193077 0.0238973 11331.6 0 0 0 
0.00585938 0.142578 1000.13 1.58012e-06 0.999999 1000.13 1.12987 1000.13 -0.00176302 0.0251178 11298.7 0 0 0 
0.00585938 0.146484 1000.13 1.69526e-06 0.999998 1000.13 1.12658 1000.13 -0.00157563 0.0262211 11265.8 0 0 0 
0.00585938 0.150391 1000.12 1.84201e-06 0.999998 1000.12 1.12328 1000.12 -0.00138234 0.0271983 11232.8 0 0 0 
0.00585938 0.154297 1000.12 2.30019e-06 0.999998 1000.12 1.11996 1000.12 -0.00119708 0.0280494 11199.6 0 0 0 
0.00585938 0.158203 1000.11 3.90821e-06 0.999997 1000.12 1.11663 1000.11 -0.00103288 0.0287839 11166.3 0 0 0 
0.00585938 0.162109 1000.11 7.1903e-06 0.999994 1000.11 1.1133 1000.11 -0.000901132 0.0294196 11133 0 0 0 
0.00585938 0.166016 1000.1 1.21839e-05 0.999989 1000.11 1.10996 1000.1 -0.000811073 0.0299817 11099.6 0 -0.000812446 0 
0.00585938 0.169922 1000.09 1.858e-05 0.999983 1000.11 1.10661 1000.09 -0.0007692 0.0305011 11066.1 0 0 0 
0.00585938 0.173828 1000.08 2.59234e-05 0.999977 1000.1 1.10325 1000.08 -0.000778427 0.0310115 11032.5 0 0 -0.000696254 
0.00585938 0.177734 1000.07 3.37891e-05 0.999969 1000.1 1.09989 1000.07 -0.000837431 0.0315472 10998.9 0 0 -0.000696254 
0.00585938 0.181641 1000.06 4.18632e-05 0.999962 1000.1 1.09652 1000.06 -0.000940662 0.0321397 10965.2 0 0 0 
0.00585938 0.185547 1000.05 4.98872e-05 0.999954 1000.09 1.09315 1000.05 -0.00107895 0.0328152 10931.5 0 0 0 
0.00585938 0.189453 1000.04 5.75195e-05 0.999947 1000.09 1.08978 1000.04 -0.00124027 0.0335924 10897.8 0 0 0 
0.00585938 0.193359 1000.03 6.42643e-05 0.999941 1000.09 1.0864 1000.03 -0.00141051 0.0344806 10864 0 0 0 
0.00585938 0.197266 1000.02 6.96186e-05 0.999936 1000.08 1.08302 1000.02 -0.00157446 0.0354788 10830.2 0 0 0 
0.00585938 0.201172 1000.01 7.34286e-05 0.999932 1000.08 1.07965 1000.01 -0.00171742 0.0365763 10796.5 0 0 0 
0.00585938 0.205078 999.977 0.00010719 0.9999 1000.08 1.07627 999.977 -0.00182747 0.0377542 10762.7 0 0 0.000714086 
0.00585938 0.208984 999.801 0.00029165 0.999728 1000.07 1.0729 999.801 -0.00189877 0.0389888 10729 0 0 0.00281504 
0.00585938 0.212891 999.38 0.000737881 0.99931 1000.07 1.06954 999.38 -0.00193487 0.0402568 10695.4 0 0 0.00281044 
0.00585938 0.216797 998.624 0.00153779 0.998558 1000.07 1.06617 998.625 -0.00194972 0.0415414 10661.7 0 2.76985e-05 0.0031276 
0.00585938 0.220703 997.468 0.00275704 0.997406 1000.06 1.06279 997.471 -0.00196565 0.0428372 10627.9 0 0 0.00241811 
0.00585938 0.224609 995.878 0.00442946 0.995819 1000.06 1.05939 995.882 -0.00200839 0.0441533 10593.9 0 0 0 
0.00585938 0.228516 993.847 0.00655621 0.993791 1000.06 1.05595 993.853 -0.00209909 0.0455125 10559.5 0 0.000312218 0.000241513 
0.00585938 0.232422 991.394 0.00911167 0.991342 1000.05 1.05244 991.403 -0.00224774 0.046947 10524.4 0 0.000357561 0.000241513 
0.00585938 0.236328 988.558 0.0120511 0.98851 1000.05 1.04883 988.57 -0.00244943 0.0484899 10488.3 0 0 0.00264155 
0.00585938 0.240234 985.395 0.0153105 0.98535 1000.05 1.0451 985.41 -0.00268367 0.0501666 10451 0 0 0.00264155 
0.00585938 0.244141 981.989 0.0187955 0.981948 1000.04 1.04121 982.008 -0.00291791 0.0519843 10412.1 0 0 0 
0.00585938 0.248047 978.451 0.0223873 0.978415 1000.04 1.03715 978.473 -0.00311419 0.053931 10371.5 0 0 0 
0.00585938 0.251953 974.847 0.0260134 0.974815 1000.03 1.0329 974.873 -0.00323922 0.0559748 10329 0 0 0 
0.00585938 0.255859 970.996 0.0298586 0.970968 1000.03 1.02848 971.026 -0.00327568 0.058076 10284.8 0 0.000334254 0 
0.00585938 0.259766 965.844 0.0349952 0.965821 1000.02 1.02389 965.879 -0.00323277 0.0601777 10238.9 0 0.00175955 0 
0.00585938 0.263672 954.959 0.045922 0.954941 1000.02 1.01915 955.005 -0.00314749 0.0622265 10191.5 0 0.00219915 0.35 
0.00585938 0.267578 929.421 0.0715991 0.929407 1000.01 1.01426 929.492 -0.0030779 0.0641501 10142.6 0 0.00346457 0.35 
0.00585938 0.271484 867.944 0.133299 0.867936 1000.01 1.00935 868.077 -0.0030811 0.0658683 10093.5 0 0 0.35 
0.00585938 0.275391 695.822 0.305622 0.695819 1000 1.00474 696.128 -0.00318748 0.0671367 10047.4 0 0 0.35 
0.00585938 0.279297 388.075 0.612799 0.388074 1000 1.00143 388.688 -0.00339208 0.0677818 10014.3 0 0 0.35 
0.00585938 0.283203 167.994 0.831868 0.167994 1000 0.999835 168.826 -0.00370374 0.0681441 9998.35 0 0 0.35 
0.00585938 0.287109 85.4621 0.913731 0.0854622 999.999 0.999118 86.3758 -0.00406902 0.0689031 9991.18 0 0 0.35 
0.00585938 0.291016 54.1167 0.944687 0.0541167 999.999 0.998736 55.0614 -0.00439247 0.0700881 9987.36 0 -0.000472299 0.35 
0.00585938 0.294922 41.0133 0.957538 0.0410134 999.998 0.998489 41.9709 -0.0045537 0.0716512 9984.89 0 0 0.00602285 
0.00585938 0.298828 34.8388 0.963533 0.0348389 999.998 0.998313 35.8023 -0.00441777 0.0733775 9983.13 0 -0.000760695 0 
0.00585938 0.302734 30.4574 0.967782 0.0304575 999.998 0.998185 31.4252 -0.00388311 0.0750353 9981.85 0 0 0 
0.00585938 0.306641 26.5244 0.971622 0.0265244 999.998 0.998096 27.496 -0.00292669 0.0763521 9980.96 0 0 0 
0.00585938 0.310547 22.6492 0.975438 0.0226492 999.998 0.998043 23.6246 -0.00162805 0.0771225 9980.43 0 0 0 
0.00585938 0.314453 18.7891 0.979267 0.0187892 999.998 0.998019 19.7684 -0.0001794 0.0771953 9980.19 0 0 0 
0.00585938 0.318359 15.0473 0.982999 0.0150473 999.998 0.998017 16.0303 0.00113353 0.0765842 9980.17 0 0 -0.000753431 
0.00585938 0.322266 11.562 0.98649 0.011562 999.998 0.998029 12.5485 0.00204701 0.0754061 9980.29 0 0 -0.0038029 
0.00585938 0.326172 8.45311 0.989611 0.00845313 999.998 0.998047 9.44272 0.0024588 0.0739018 9980.47 0 0 -0.00304947 
0.00585938 0.330078 5.8078 0.992271 0.00580781 999.998 0.998067 6.80007 0.00243291 0.0723438 9980.67 0 0 0 
0.00585938 0.333984 3.68666 0.994405 0.00368667 999.998 0.998085 4.68107 0.00206346 0.0709389 9980.85 0 0 0 
0.00585938 0.337891 2.11575 0.995987 0.00211575 999.998 0.998099 3.11173 0.00140809 0.0698672 9980.99 0 0 0 
0.00585938 0.341797 1.07255 0.997038 0.00107255 999.998 0.998109 2.06958 0.000582259 0.0692836 9981.09 0 0 0 
0.00585938 0.345703 0.481229 0.997636 0.00048123 999.998 0.998116 1.47886 -0.000164 0.0692101 9981.16 0 0.000230229 0 
0.00585938 0.349609 0.223634 0.997898 0.000223635 999.998 0.998122 1.22153 -0.000513002 0.0695016 9981.22 0 0 0 
0.00585938 0.353516 0.157531 0.997969 0.000157531 999.998 0.998126 1.1555 -0.000311908 0.0698348 9981.26 0 0 0 
0.00585938 0.357422 0.132542 0.997998 0.000132542 999.998 0.99813 1.13054 0.000295564 0.0698798 9981.3 0 0 0 
0.00585938 0.361328 0.106532 0.998028 0.000106532 999.998 0.998134 1.10456 0.0011062 0.0694505 9981.34 0 0 0 
0.00585938 0.365234 0.0796062 0.998058 7.96063e-05 999.998 0.998137 1.07766 0.00200218 0.068449 9981.37 0 0 0 
0.00585938 0.369141 0.0539556 0.998086 5.39557e-05 999.998 0.99814 1.05204 0.002906 0.0668552 9981.4 0 0 0 
0.00585938 0.373047 0.0322507 0.99811 3.22508e-05 999.998 0.998143 1.03036 0.0037366 0.0646934 9981.43 0 0 0.00287445 
0.00585938 0.376953 0.0163556 0.998128 1.63556e-05 999.998 0.998145 1.01448 0.00439611 0.0620458 9981.45 0 0 0.00287445 
0.00585938 0.380859 0.00677864 0.99814 6.77865e-06 999.998 0.998147 1.00492 0.00479713 0.0590551 9981.47 0 0 0 
0.00585938 0.384766 0.00263077 0.998146 2.63077e-06 999.998 0.998148 1.00078 0.00491039 0.0559046 9981.48 0 0 0 
0.00585938 0.388672 0.00180405 0.998148 1.80406e-06 999.998 0.998149 0.999952 0.00478163 0.0527679 9981.49 0 0.00081229 0 
0.00585938 0.392578 0.00165334 0.998149 1.65335e-06 999.998 0.99815 0.999802 0.00449633 0.0497712 9981.5 0 0 0 
0.00585938 0.396484 0.00150732 0.99815 1.50732e-06 999.998 0.998151 0.999657 0.00414277 0.0469853 9981.51 0 0 0 
0.00585938 0.400391 0.00136477 0.99815 1.36477e-06 999.998 0.998152 0.999515 0.00379489 0.0444306 9981.52 0 0 0 
0.00585938 0.404297 0.00123186 0.998151 1.23186e-06 999.998 0.998152 0.999383 0.00350472 0.0420869 9981.52 0 0 0 
0.00585938 0.408203 0.00112133 0.998151 1.12133e-06 999.998 0.998152 0.999272 0.00329796 0.0399083 9981.52 0 0 0 
0.00585938 0.412109 0.00104633 0.998151 1.04633e-06 999.998 0.998152 0.999197 0.00317386 0.0378401 9981.52 0 0 0 
0.00585938 0.416016 0.001011 0.998151 1.011e-06 999.998 0.998152 0.999162 0.00311161 0.0358347 9981.52 0 0 0 
0.00585938 0.419922 0.00100303 0.998151 1.00304e-06 999.998 0.998152 0.999154 0.00308175 0.0338616 9981.52 0 0 0 
0.00585938 0.423828 0.00100148 0.99815 1.00148e-06 999.998 0.998151 0.999152 0.00305714 0.0319086 9981.51 0 0 0 
0.00585938 0.427734 0.00100051 0.998149 1.00051e-06 999.998 0.99815 0.99915 0.00302015 0.0299786 9981.5 0 0 0 
0.00585938 0.431641 0.000999761 0.998149 9.99763e-07 999.998 0.99815 0.999148 0.00296487 0.028082 9981.5 0 0 0 
0.00585938 0.435547 0.000999072 0.998148 9.99074e-07 999.998 0.998149 0.999147 0.00289502 0.0262298 9981.49 0 0 0 
0.00585938 0.439453 0.000998423 0.998147 9.98425e-07 999.998 0.998148 0.999145 0.00281937 0.0244289 9981.48 0 -0.000306331 0 
0.00585938 0.443359 0.000997897 0.998145 9.97899e-07 999.998 0.998146 0.999143 0.00274708 0.02268 9981.46 0 -0.00112342 0 
0.00585938 0.447266 0.000997599 0.998144 9.97601e-07 999.998 0.998145 0.999142 0.00268444 0.0209788 9981.45 0 0 0 
0.00585938 0.451172 0.000997577 0.998143 9.97579e-07 999.998 0.998144 0.99914 0.00263373 0.0193176 9981.44 0 0 0 
0.00585938 0.455078 0.000997774 0.998141 9.97776e-07 999.998 0.998142 0.999139 0.00259383 0.0176891 9981.42 0 0 0 
0.00585938 0.458984 0.000998069 0.99814 9.9807e-07 999.998 0.998141 0.999138 0.00256186 0.0160861 9981.41 0 0 0.000246882 
0.00585938 0.462891 0.000998339 0.998138 9.98341e-07 999.998 0.998139 0.999136 0.00253496 0.0145057 9981.39 0 0 0.000246882 
0.00585938 0.466797 0.000998507 0.998136 9.98509e-07 999.998 0.998137 0.999135 0.00251149 0.0129423 9981.37 0 0 0 
0.00585938 0.470703 0.000998549 0.998135 9.98551e-07 999.998 0.998136 0.999133 0.00249128 0.0113981 9981.36 0 0 0 
0.00585938 0.474609 0.000998486 0.998133 9.98488e-07 999.998 0.998134 0.999131 0.00247532 0.00986278 9981.34 0 0 0 
0.00585938 0.478516 0.000998356 0.998131 9.98358e-07 999.998 0.998132 0.999129 0.00246484 0.00834542 9981.32 0 0 0.00201869 
0.00585938 0.482422 0.000998196 0.998128 9.98198e-07 999.998 0.998129 0.999127 0.00246046 0.00681968 9981.29 0 0 0.00201869 
0.00585938 0.486328 0.000998034 0.998126 9.98036e-07 999.998 0.998127 0.999125 0.00246159 0.00531778 9981.27 0 0 0 
0.00585938 0.490234 0.000997893 0.998124 9.97895e-07 999.998 0.998125 0.999122 0.00246622 0.00376776 9981.25 0 0 -0.00143649 
0.00585938 0.494141 0.000997789 0.998122 9.97791e-07 999.998 0.998123 0.99912 0.0024712 0.00227522 9981.23 0 0 -0.00143649 
0.00585938 0.498047 0.000997736 0.998119 9.97737e-07 999.998 0.99812 0.999117 0.00247396 0.000599131 9981.2 0 0 0 
0.00976562 0.00195312 1000.23 9.14434e-07 0.999999 1000.24 1.23564 1000.23 -0.00125869 7.37165e-05 12356.4 0 0 0 
0.00976562 0.00585938 1000.23 9.28959e-07 0.999999 1000.23 1.23229 1000.23 -0.00124451 0.000746894 12322.9 0 0 0 
0.00976562 0.00976562 1000.23 9.76253e-07 0.999999 1000.23 1.2303 1000.23 -0.00122544 0.00121479 12303 0 0 0 
0.00976562 0.0136719 1000.23 1.0266e-06 0.999999 1000.23 1.2275 1000.23 -0.00120435 0.00175224 12275 0 0 0 
0.00976562 0.0175781 1000.22 1.04521e-06 0.999999 1000.23 1.22511 1000.22 -0.00117797 0.00223128 12251.1 0 0 0 